LAMMPS data file

2 atom types
1 bond types
1 angle types

2709 atoms
1806 bonds
903 angles

-15.1352997 15.1352997 xlo xhi
-15.1352997 15.1352997 ylo yhi
-15.1352997 15.1352997 zlo zhi

Masses

1 1.00800002
2 15.9994001

Pair Coeffs

1 0.00000000 0.00000000
2 0.101999998 3.18799996

Bond Coeffs

1 0.0 0.9572

Angle Coeffs

1 0.0 104.52

Atoms

1 1 1 0.414999992 -0.234152079 1.70313823 6.66324282
2 1 2 -0.829999983 7.43212700E-02 2.37690425 6.05378008
3 1 1 0.414999992 -0.697450221 2.62283564 5.52534771
4 2 1 0.414999992 12.0667162 21.5363750 12.4259701
5 2 2 -0.829999983 12.5205564 22.3340015 12.7059126
6 2 1 0.414999992 12.3950005 22.3610439 13.6567297
7 3 1 0.414999992 13.4777985 3.31993580 3.78128529
8 3 2 -0.829999983 14.4000282 3.08122492 4.00399637
9 3 1 0.414999992 14.8117714 2.89855719 3.15684700
10 4 1 0.414999992 27.3261471 19.4460640 15.4347734
11 4 2 -0.829999983 27.7235680 18.6411934 15.0960197
12 4 1 0.414999992 28.0106258 18.8693790 14.2093945
13 5 1 0.414999992 4.54773235 5.03967333 19.6102333
14 5 2 -0.829999983 4.53281546 5.99864292 19.5829391
15 5 1 0.414999992 4.88478422 6.22020388 18.7183208
16 6 1 0.414999992 26.8755207 14.1966410 20.3227520
17 6 2 -0.829999983 27.2873955 13.4938183 20.8606052
18 6 1 0.414999992 27.1979485 13.7905197 21.7686253
19 7 1 0.414999992 9.66591454 30.3002300 1.83095419
20 7 2 -0.829999983 8.85416317 30.1417389 2.31722236
21 7 1 0.414999992 9.12299824 29.6049137 3.06561685
22 8 1 0.414999992 3.14419413 15.0734434 3.44263721
23 8 2 -0.829999983 4.04088640 15.3001146 3.69781208
24 8 1 0.414999992 3.97476912 16.1936951 4.04086637
25 9 1 0.414999992 25.3647308 14.8554258 19.0061932
26 9 2 -0.829999983 25.8566456 15.5196447 19.4933758
27 9 1 0.414999992 25.8051071 16.3063717 18.9466057
28 10 1 0.414999992 27.0611458 9.45274544 16.9259720
29 10 2 -0.829999983 26.7794991 8.78787327 17.5576897
30 10 1 0.414999992 27.3775406 8.89314175 18.3005219
31 11 1 0.414999992 4.09689903 23.6647053 6.27700520
32 11 2 -0.829999983 3.33985186 23.8176022 5.70777035
33 11 1 0.414999992 3.45204329 23.1954403 4.98602867
34 12 1 0.414999992 4.55340862 15.1957874 11.0610609
35 12 2 -0.829999983 5.21379948 14.7419662 10.5333204
36 12 1 0.414999992 5.14904261 13.8238859 10.8044243
37 13 1 0.414999992 21.2231941 5.50346279 14.3454866
38 13 2 -0.829999983 21.5723228 5.36662579 13.4623480
39 13 1 0.414999992 22.5248127 5.40142488 13.5721855
40 14 1 0.414999992 24.5930367 6.10533524 12.5549011
41 14 2 -0.829999983 24.0362663 5.84402323 13.2912502
42 14 1 0.414999992 24.6391315 5.76924992 14.0339365
43 15 1 0.414999992 17.1445675 29.2292824 28.9231377
44 15 2 -0.829999983 17.3201962 28.8201294 28.1646671
45 15 1 0.414999992 17.2598953 29.4781113 27.4689388
46 16 1 0.414999992 10.6605034 22.0096931 23.0326347
47 16 2 -0.829999983 11.1834145 22.8121262 22.9759140
48 16 1 0.414999992 10.8484030 23.2630501 22.1981087
49 17 1 0.414999992 1.16765928 3.12951589 22.9619370
50 17 2 -0.829999983 1.09295750 3.99728155 23.3644142
51 17 1 0.414999992 0.299594164 3.94587994 23.9014950
52 18 1 0.414999992 28.9160099 24.3982906 18.2609272
53 18 2 -0.829999983 29.2369270 24.6631603 17.3964462
54 18 1 0.414999992 28.5233517 25.1857510 17.0246315
55 19 1 0.414999992 1.56248856 19.8236980 2.63495421
56 19 2 -0.829999983 1.46802366 19.2357731 3.38726211
57 19 1 0.414999992 1.27355552 18.3795261 3.00051475
58 20 1 0.414999992 7.20447969 1.56105196 4.05694723
59 20 2 -0.829999983 6.73353767 1.07710814 3.37540174
60 20 1 0.414999992 7.42462206 0.686621428 2.83646750
61 21 1 0.414999992 27.7145615 24.5353966 6.58280563
62 21 2 -0.829999983 27.0638142 24.7449265 7.25595427
63 21 1 0.414999992 27.2663021 24.1489105 7.98003578
64 22 1 0.414999992 3.00870180 25.5200520 13.3546906
65 22 2 -0.829999983 2.54994607 25.9629002 14.0716105
66 22 1 0.414999992 2.61032796 25.3523655 14.8092813
67 23 1 0.414999992 2.90617537 28.5337715 23.5666828
68 23 2 -0.829999983 2.71290851 27.6854763 23.1622734
69 23 1 0.414999992 3.22805309 27.6819649 22.3528194
70 24 1 0.414999992 16.5635109 23.4262524 27.1523972
71 24 2 -0.829999983 16.1474361 23.6441345 26.3157787
72 24 1 0.414999992 15.2150354 23.7285614 26.5255947
73 25 1 0.414999992 2.50992036 15.3680401 14.9273987
74 25 2 -0.829999983 3.09554362 14.7970181 14.4258661
75 25 1 0.414999992 3.96780133 15.1759739 14.5527420
76 26 1 0.414999992 18.9074020 14.9678249 12.4285250
77 26 2 -0.829999983 18.5591488 14.7329779 11.5659380
78 26 1 0.414999992 18.0007153 15.4740868 11.3220654
79 27 1 0.414999992 16.9959450 18.4632053 26.8211460
80 27 2 -0.829999983 17.2680016 17.7853127 27.4432373
81 27 1 0.414999992 16.5456104 17.7322769 28.0724125
82 28 1 0.414999992 8.28302383 29.6121025 15.3199539
83 28 2 -0.829999983 7.60770559 29.0026779 15.0148106
84 28 1 0.414999992 6.96040487 28.9867439 15.7228203
85 29 1 0.414999992 25.1816940 3.43729115 17.4480629
86 29 2 -0.829999983 25.3582993 2.68549824 16.8787460
87 29 1 0.414999992 26.3019390 2.72759271 16.7104988
88 30 1 0.414999992 9.25073242 0.984855890 25.2459259
89 30 2 -0.829999983 9.41726112 0.964190781 24.3012810
90 30 1 0.414999992 8.75330639 1.54706144 23.9271641
91 31 1 0.414999992 7.96361017 2.60857701 14.3678970
92 31 2 -0.829999983 8.06440926 3.53546715 14.5943022
93 31 1 0.414999992 7.18951797 3.81084681 14.8758516
94 32 1 0.414999992 6.60870600 14.9989185 0.278497308
95 32 2 -0.829999983 6.91377449 15.9025269 0.173652411
96 32 1 0.414999992 7.22073269 15.9489679 -0.734189987
97 33 1 0.414999992 2.72218895 7.90964365 17.0135365
98 33 2 -0.829999983 1.85387993 7.70398569 17.3660793
99 33 1 0.414999992 1.35837042 8.52070332 17.2767277
100 34 1 0.414999992 19.1370792 21.1116829 19.1446152
101 34 2 -0.829999983 19.4160023 21.9678993 19.4757252
102 34 1 0.414999992 20.2980900 21.8164291 19.8214111
103 35 1 0.414999992 6.52954292 30.1437206 4.96609116
104 35 2 -0.829999983 6.31076193 29.5757599 5.70779657
105 35 1 0.414999992 5.91039944 30.1640263 6.35133505
106 36 1 0.414999992 9.31925488 22.0889626 8.49546242
107 36 2 -0.829999983 8.41888714 21.8127861 8.67877388
108 36 1 0.414999992 8.14974880 21.3328266 7.89282131
109 37 1 0.414999992 23.2383080 12.0791578 9.45861721
110 37 2 -0.829999983 23.2745399 12.5330544 10.3031120
111 37 1 0.414999992 22.6134453 13.2248468 10.2329330
112 38 1 0.414999992 3.30259895 17.0268555 28.1816063
113 38 2 -0.829999983 3.33016944 16.2550011 28.7508354
114 38 1 0.414999992 3.61951351 16.5724964 29.5726318
115 39 1 0.414999992 26.5277443 18.1098194 5.11938477
116 39 2 -0.829999983 27.4518280 18.3597431 5.05493546
117 39 1 0.414999992 27.4964905 19.2246265 5.46792698
118 40 1 0.414999992 22.6297340 8.68546677 2.05921340
119 40 2 -0.829999983 22.2546883 8.42066574 2.83629441
120 40 1 0.414999992 21.6686649 7.69088030 2.62528872
121 41 1 0.414999992 4.65619850 18.1654205 9.12900639
122 41 2 -0.829999983 4.80264235 17.2620144 8.84107971
123 41 1 0.414999992 5.04349518 16.7905464 9.64126396
124 42 1 0.414999992 15.1987391 8.97745419 30.1257648
125 42 2 -0.829999983 14.8781223 8.56226349 29.3224449
126 42 1 0.414999992 15.1660557 7.72856236 29.4473534
127 43 1 0.414999992 7.83420753 23.2985039 9.54189205
128 43 2 -0.829999983 7.72016764 24.1096706 10.0413780
129 43 1 0.414999992 7.88628483 24.8089561 9.40578461
130 44 1 0.414999992 21.0041714 1.88270926 17.0160923
131 44 2 -0.829999983 21.9008312 1.54118049 17.0147209
132 44 1 0.414999992 22.4395790 2.27880955 17.3083134
133 45 1 0.414999992 2.53535986 5.88028860 7.30493069
134 45 2 -0.829999983 2.69265389 6.68222570 7.80761671
135 45 1 0.414999992 3.55458951 6.55007887 8.20776081
136 46 1 0.414999992 21.6566944 0.894715071 26.6096497
137 46 2 -0.829999983 20.8179417 0.469365656 26.4195423
138 46 1 0.414999992 20.7339096 0.519061804 25.4650650
139 47 1 0.414999992 17.7626228 30.5411015 4.22836256
140 47 2 -0.829999983 17.3219109 29.7029171 4.07447338
141 47 1 0.414999992 17.1244621 29.3701687 4.95244837
142 48 1 0.414999992 29.3060894 18.6857185 5.80418539
143 48 2 -0.829999983 29.9395485 19.3731461 5.71985149
144 48 1 0.414999992 30.3877869 19.0807762 4.92349768
145 49 1 0.414999992 22.0406055 28.3558064 24.5414982
146 49 2 -0.829999983 21.3636341 27.9147167 25.0589466
147 49 1 0.414999992 21.6047573 28.0910301 25.9707184
148 50 1 0.414999992 27.6156044 21.1262894 28.5252361
149 50 2 -0.829999983 27.5142708 21.8677425 27.9248104
150 50 1 0.414999992 28.1293793 21.6854153 27.2114239
151 51 1 0.414999992 1.73482859 18.9687386 7.70601749
152 51 2 -0.829999983 1.40997016 18.4137573 8.41804695
153 51 1 0.414999992 1.71778548 17.5326061 8.19578362
154 52 1 0.414999992 13.0889244 26.7052345 3.98379087
155 52 2 -0.829999983 12.1481237 26.6364365 3.80864859
156 52 1 0.414999992 12.0368710 27.0217552 2.93704939
157 53 1 0.414999992 19.1357098 22.7928200 22.6621590
158 53 2 -0.829999983 19.9674397 22.8157978 23.1398945
159 53 1 0.414999992 19.9732590 22.0043583 23.6518593
160 54 1 0.414999992 15.0214787 28.7633705 2.09697008
161 54 2 -0.829999983 15.1827936 28.2643166 1.29357958
162 54 1 0.414999992 16.0540543 28.5454941 1.00659811
163 55 1 0.414999992 1.62689686 13.5856600 22.8767300
164 55 2 -0.829999983 2.22259474 12.8945150 22.5801048
165 55 1 0.414999992 1.66448486 12.1197281 22.4865570
166 56 1 0.414999992 12.9792309 16.8363342 2.00378942
167 56 2 -0.829999983 13.6028109 16.1618862 1.72675586
168 56 1 0.414999992 13.4638567 15.4277983 2.34753704
169 57 1 0.414999992 2.13443375 2.55108142 2.58143806
170 57 2 -0.829999983 2.26466131 2.46862721 3.52843142
171 57 1 0.414999992 1.48904777 2.15245628 3.82500577
172 58 1 0.414999992 12.1103201 18.5594177 14.3737555
173 58 2 -0.829999983 11.5193472 19.2677574 14.1100063
174 58 1 0.414999992 10.8373919 19.2758865 14.7848454
175 59 1 0.414999992 24.8315296 19.3107719 25.9276009
176 59 2 -0.829999983 25.5924091 18.8037987 25.5939026
177 59 1 0.414999992 25.7761898 18.1659679 26.2866821
178 60 1 0.414999992 4.46813917 8.95790672 15.4401627
179 60 2 -0.829999983 3.87704706 8.20260143 15.4658909
180 60 1 0.414999992 4.09142828 7.70236492 14.6757355
181 61 1 0.414999992 25.7239037 16.4508114 10.4209881
182 61 2 -0.829999983 24.8050556 16.7048397 10.3127279
183 61 1 0.414999992 24.6474457 16.6409206 9.36848450
184 62 1 0.414999992 0.765874863 13.0290108 29.4334850
185 62 2 -0.829999983 0.920395494 13.7587557 30.0369587
186 62 1 0.414999992 1.72732520 14.1680565 29.7178268
187 63 1 0.414999992 22.3552628 18.7741814 18.1298733
188 63 2 -0.829999983 22.0303669 18.1498833 18.7819462
189 63 1 0.414999992 21.5684319 17.4840851 18.2682590
190 64 1 0.414999992 29.2606945 9.19234180 28.1296005
191 64 2 -0.829999983 29.2515106 9.52860451 27.2644253
192 64 1 0.414999992 28.6872063 8.86834908 26.8568649
193 65 1 0.414999992 16.4230709 11.2245579 30.5691910
194 65 2 -0.829999983 16.3473225 11.8246336 29.8964939
195 65 1 0.414999992 17.2210197 12.0610199 29.5861950
196 66 1 0.414999992 17.8173866 7.82775927 2.34487844
197 66 2 -0.829999983 17.2210445 7.80278540 3.09605575
198 66 1 0.414999992 16.6078701 7.07185411 2.88866639
199 67 1 0.414999992 4.63537931 27.1474552 9.31090832
200 67 2 -0.829999983 4.27541780 27.9242039 9.74401474
201 67 1 0.414999992 4.74489975 27.9731598 10.5793161
202 68 1 0.414999992 26.9177818 3.85525441 7.45057058
203 68 2 -0.829999983 26.4854698 4.68205976 7.22689772
204 68 1 0.414999992 25.9909840 4.91590500 8.01515198
205 69 1 0.414999992 12.7911901 22.5378971 22.0953274
206 69 2 -0.829999983 13.6352491 22.5962067 21.6428032
207 69 1 0.414999992 14.1156540 21.8163834 21.9284286
208 70 1 0.414999992 22.4895782 11.4579325 17.1155148
209 70 2 -0.829999983 21.6009369 11.8169775 17.1601391
210 70 1 0.414999992 21.1120853 11.1840038 17.6901932
211 71 1 0.414999992 28.1400661 4.45744848 22.2493877
212 71 2 -0.829999983 27.9633045 5.39820194 22.3147011
213 71 1 0.414999992 27.2877045 5.56250238 21.6536121
214 72 1 0.414999992 15.1789389 3.52671838 -0.834118426
215 72 2 -0.829999983 15.3433361 3.20231748 5.37535921E-02
216 72 1 0.414999992 16.2991657 3.20207262 0.136647373
217 73 1 0.414999992 18.3708649 5.97911739 23.8205509
218 73 2 -0.829999983 17.7992325 6.73634148 23.9633846
219 73 1 0.414999992 17.4071846 6.90714931 23.1044750
220 74 1 0.414999992 20.6016426 12.2801657 4.38036060
221 74 2 -0.829999983 20.9435768 11.5437260 3.86924267
222 74 1 0.414999992 20.6501560 11.7167053 2.97223258
223 75 1 0.414999992 3.04652429 7.55870152 11.5847931
224 75 2 -0.829999983 3.33973622 8.36265087 12.0186424
225 75 1 0.414999992 4.04524469 8.07719898 12.6028433
226 76 1 0.414999992 12.7507954 19.6419220 29.9521523
227 76 2 -0.829999983 13.2531958 20.0098457 29.2223015
228 76 1 0.414999992 12.7518969 20.7812176 28.9498730
229 77 1 0.414999992 21.2050457 2.52326751 7.03219843
230 77 2 -0.829999983 20.3202400 2.86461306 7.17744589
231 77 1 0.414999992 19.8222885 2.57687926 6.40943241
232 78 1 0.414999992 21.4802399 18.8223400 29.1685810
233 78 2 -0.829999983 21.8609715 18.3269176 28.4404926
234 78 1 0.414999992 22.7516880 18.6728745 28.3538704
235 79 1 0.414999992 16.0153389 13.4413738 3.79563475
236 79 2 -0.829999983 16.7728710 13.8980160 3.42390347
237 79 1 0.414999992 17.3774185 13.1964540 3.17314219
238 80 1 0.414999992 11.9252100 16.7215767 16.6198692
239 80 2 -0.829999983 11.7314653 15.9905672 17.2103157
240 80 1 0.414999992 12.5181446 15.4421568 17.1803951
241 81 1 0.414999992 1.68869174 14.0096445 1.61333907
242 81 2 -0.829999983 2.09685159 13.6193361 2.38893270
243 81 1 0.414999992 2.13621235 12.6808147 2.19353199
244 82 1 0.414999992 21.7309361 7.33181763 13.5782194
245 82 2 -0.829999983 21.4484253 8.21210861 13.3216381
246 82 1 0.414999992 21.2937908 8.14926624 12.3768082
247 83 1 0.414999992 6.11670780 10.8517590 11.0154123
248 83 2 -0.829999983 7.01412153 10.5130873 10.9933558
249 83 1 0.414999992 7.18744993 10.3513403 10.0636635
250 84 1 0.414999992 16.3681622 2.98476338 17.5469818
251 84 2 -0.829999983 16.7300014 2.09996510 17.6289825
252 84 1 0.414999992 17.5946960 2.15452361 17.2168503
253 85 1 0.414999992 25.7267189 16.7276917 28.0926418
254 85 2 -0.829999983 26.0620937 17.3699474 27.6272144
255 85 1 0.414999992 26.9043255 17.0198078 27.3295956
256 86 1 0.414999992 29.6010723 -0.404218107 16.0933437
257 86 2 -0.829999983 29.4317780 -1.62788527E-03 16.9476280
258 86 1 0.414999992 29.2440948 0.917730808 16.7473316
259 87 1 0.414999992 21.4893456 22.4707508 5.53330612
260 87 2 -0.829999983 20.7192898 23.0099239 5.34138203
261 87 1 0.414999992 20.2563515 22.5309753 4.65084457
262 88 1 0.414999992 22.8435860 28.5638237 1.97084045
263 88 2 -0.829999983 22.2292862 29.1072369 1.47293758
264 88 1 0.414999992 21.5606689 28.4926128 1.16353273
265 89 1 0.414999992 23.5713539 18.9912148 15.3310270
266 89 2 -0.829999983 22.9525299 18.7243805 14.6480465
267 89 1 0.414999992 23.3695965 17.9698486 14.2270422
268 90 1 0.414999992 7.44196224 26.0665665 28.1258202
269 90 2 -0.829999983 8.00960922 26.8341808 28.0303917
270 90 1 0.414999992 8.05825329 26.9812031 27.0835381
271 91 1 0.414999992 10.8215189 2.20695400 20.9785557
272 91 2 -0.829999983 11.3259535 2.98103094 21.2371330
273 91 1 0.414999992 10.9235735 3.26660061 22.0599861
274 92 1 0.414999992 17.4479141 25.2160435 4.70505095
275 92 2 -0.829999983 16.8828678 24.7576847 4.07961082
276 92 1 0.414999992 17.4817352 24.4728870 3.36179090
277 93 1 0.414999992 2.07544088 13.2303667 9.08508110
278 93 2 -0.829999983 2.33915687 14.1470318 9.18881416
279 93 1 0.414999992 2.66048956 14.2042761 10.0910368
280 94 1 0.414999992 17.5108109 27.1240463 14.5959997
281 94 2 -0.829999983 17.6089516 26.6353283 15.4157581
282 94 1 0.414999992 17.5170803 27.2980614 16.1034184
283 95 1 0.414999992 26.9835892 3.82576442 5.45081091
284 95 2 -0.829999983 27.3281155 3.34952450 4.69251871
285 95 1 0.414999992 26.5532589 3.14329600 4.16561842
286 96 1 0.414999992 20.6765785 22.7849388 15.8563700
287 96 2 -0.829999983 21.4015274 23.4104729 15.9170551
288 96 1 0.414999992 21.1262321 24.0328465 16.5934124
289 97 1 0.414999992 1.79790270 9.00700951 20.4480820
290 97 2 -0.829999983 0.930978358 9.44133186 20.3766537
291 97 1 0.414999992 0.949993849 9.91332531 19.5415897
292 98 1 0.414999992 3.40832305 20.6759758 6.62897587
293 98 2 -0.829999983 2.58058953 20.2915363 6.92491341
294 98 1 0.414999992 2.17948508 20.9730282 7.46824646
295 99 1 0.414999992 7.89181042 16.8712673 5.61245203
296 99 2 -0.829999983 8.79531002 17.1550560 5.45849419
297 99 1 0.414999992 8.78779793 18.0954819 5.64848089
298 100 1 0.414999992 9.07919025 14.1689720 1.21495736
299 100 2 -0.829999983 9.38680172 13.6921110 0.566480398
300 100 1 0.414999992 8.85198307 12.8957701 0.585743725
301 101 1 0.414999992 14.8440952 27.9619083 25.4465046
302 101 2 -0.829999983 14.9085264 28.2135429 24.5228882
303 101 1 0.414999992 15.6367359 27.6905308 24.1813030
304 102 1 0.414999992 13.1631985 22.9563332 5.70073271
305 102 2 -0.829999983 12.2187243 22.8106194 5.61536312
306 102 1 0.414999992 12.1429338 21.9158192 5.27749348
307 103 1 0.414999992 6.27121106E-02 18.5492153 14.0162182
308 103 2 -0.829999983 0.719752550 18.2184296 14.6322155
309 103 1 0.414999992 0.229189381 17.6391850 15.2190323
310 104 1 0.414999992 1.35887146 6.19460583 18.3728104
311 104 2 -0.829999983 1.18067610 5.44015884 18.9381447
312 104 1 0.414999992 1.53539813 5.69140005 19.7934704
313 105 1 0.414999992 16.2553959 21.0229092 21.1088772
314 105 2 -0.829999983 15.8030024 20.4700413 20.4683876
315 105 1 0.414999992 16.1737823 20.7293396 19.6223221
316 106 1 0.414999992 20.5744381 20.1464691 7.74299335
317 106 2 -0.829999983 20.9833202 20.9587955 7.43736935
318 106 1 0.414999992 20.2760925 21.6068249 7.45844126
319 107 1 0.414999992 23.2481861 20.2600212 12.4438353
320 107 2 -0.829999983 23.1066608 20.9317799 11.7709084
321 107 1 0.414999992 22.3440094 21.4281502 12.0965786
322 108 1 0.414999992 24.3024387 25.8883705 29.4530869
323 108 2 -0.829999983 25.2043056 25.8565407 29.7788296
324 108 1 0.414999992 25.6261139 26.6280556 29.3948898
325 109 1 0.414999992 21.1373005 29.3292007 14.9945755
326 109 2 -0.829999983 21.9349995 29.5575027 15.4763288
327 109 1 0.414999992 21.6510048 30.2163334 16.1133785
328 110 1 0.414999992 14.6626415 23.9332809 11.5766649
329 110 2 -0.829999983 14.5020933 23.6015339 10.6908207
330 110 1 0.414999992 14.3358183 24.3873978 10.1661148
331 111 1 0.414999992 9.68329239 19.8516369 19.1211510
332 111 2 -0.829999983 8.97687244 20.1660004 19.6892052
333 111 1 0.414999992 8.17273045 19.8587132 19.2655869
334 112 1 0.414999992 3.99619293 23.6794205 28.3653908
335 112 2 -0.829999983 4.81071377 23.4402409 28.8124828
336 112 1 0.414999992 5.50314379 23.6654148 28.1876640
337 113 1 0.414999992 24.9824467 16.3552647 6.94137239
338 113 2 -0.829999983 24.7953949 16.2299957 7.87404871
339 113 1 0.414999992 24.4844437 15.3245678 7.93755627
340 114 1 0.414999992 22.3885593 18.7838631 4.49623585
341 114 2 -0.829999983 22.5357227 17.8473206 4.64387751
342 114 1 0.414999992 22.2921124 17.4352684 3.79784012
343 115 1 0.414999992 26.8509216 6.69694710 10.5086908
344 115 2 -0.829999983 27.0792198 7.43998909 9.94627190
345 115 1 0.414999992 26.2389774 7.74452639 9.59722900
346 116 1 0.414999992 8.08178425 2.16374922 27.4289589
347 116 2 -0.829999983 7.71678495 3.03165007 27.6135616
348 116 1 0.414999992 7.59796286 3.04514527 28.5655384
349 117 1 0.414999992 16.8534679 24.9390812 19.4052582
350 117 2 -0.829999983 16.3586044 24.1437283 19.6127434
351 117 1 0.414999992 15.5764809 24.4553890 20.1077747
352 118 1 0.414999992 27.2348423 25.3516884 12.1157970
353 118 2 -0.829999983 27.1583691 24.9285164 11.2581139
354 118 1 0.414999992 26.5112247 24.2325993 11.3900795
355 119 1 0.414999992 8.38509464 21.6168251 30.3332024
356 119 2 -0.829999983 8.99916363 21.7103119 29.6744461
357 119 1 0.414999992 8.46253681 21.7897053 28.8830757
358 120 1 0.414999992 5.29608917 20.9201469 25.6775379
359 120 2 -0.829999983 5.12308502 21.2901592 24.8093719
360 120 1 0.414999992 4.32199907 20.8511524 24.5160713
361 121 1 0.414999992 29.6458702 11.9152098 2.45375681
362 121 2 -0.829999983 29.7562313 11.2742662 1.74833965
363 121 1 0.414999992 30.7065144 11.1810169 1.65459442
364 122 1 0.414999992 17.8368206 9.10173225 21.2309933
365 122 2 -0.829999983 17.7146587 10.0502729 21.3076363
366 122 1 0.414999992 16.8128033 10.2009459 21.0169125
367 123 1 0.414999992 25.7927742 14.3755646 23.6547203
368 123 2 -0.829999983 24.9414101 14.5050564 23.2316360
369 123 1 0.414999992 24.3010044 14.2270060 23.8897610
370 124 1 0.414999992 21.1103592 18.5862694 14.8390684
371 124 2 -0.829999983 20.2308407 18.2170429 14.9424734
372 124 1 0.414999992 20.3082256 17.6159534 15.6863222
373 125 1 0.414999992 12.3880672 5.31561232 14.2754850
374 125 2 -0.829999983 12.6840429 4.87525702 15.0944147
375 125 1 0.414999992 13.5745506 5.19939899 15.2442751
376 126 1 0.414999992 6.82520628 7.30732727 11.5082998
377 126 2 -0.829999983 6.73436642 7.69256258 10.6343021
378 126 1 0.414999992 6.75209379 8.63978863 10.7858629
379 127 1 0.414999992 17.0668564 10.6601305 25.7104950
380 127 2 -0.829999983 17.5158253 9.81316853 25.7508278
381 127 1 0.414999992 16.8076572 9.16597271 25.7652588
382 128 1 0.414999992 28.3944912 21.6072388 16.2725677
383 128 2 -0.829999983 29.1852894 21.8805943 16.7421150
384 128 1 0.414999992 29.2433662 22.8254337 16.5857639
385 129 1 0.414999992 3.33956957 13.0272512 14.0262251
386 129 2 -0.829999983 3.71454024 12.1669054 14.2256451
387 129 1 0.414999992 3.01663494 11.7026663 14.6925058
388 130 1 0.414999992 4.21663713 22.7427807 8.96405315
389 130 2 -0.829999983 3.99589872 22.9853725 9.86569118
390 130 1 0.414999992 3.78265429 22.1533794 10.2933283
391 131 1 0.414999992 1.68007267 0.656455040 23.2052021
392 131 2 -0.829999983 2.13920212 0.496690363 24.0323658
393 131 1 0.414999992 2.81417084 1.17761493 24.0682640
394 132 1 0.414999992 14.6353321 9.73194695 1.78699064
395 132 2 -0.829999983 15.5047016 9.76797581 1.38277769
396 132 1 0.414999992 16.0859928 10.0598431 2.08807158
397 133 1 0.414999992 11.8162651 27.7068844 7.69083118
398 133 2 -0.829999983 11.8453102 28.3560505 6.98496675
399 133 1 0.414999992 10.9304276 28.6167564 6.86012793
400 134 1 0.414999992 25.8287659 17.3443947 1.35974836
401 134 2 -0.829999983 25.0635300 17.6176338 0.849564373
402 134 1 0.414999992 24.6849842 18.3415871 1.35267448
403 135 1 0.414999992 16.6102734 18.4660473 17.5625458
404 135 2 -0.829999983 16.5799026 17.9380970 18.3631096
405 135 1 0.414999992 15.9931574 18.4385052 18.9656105
406 136 1 0.414999992 15.7858028 28.7839603 17.2471695
407 136 2 -0.829999983 16.2147942 28.0503750 17.6924915
408 136 1 0.414999992 15.5014029 27.5894775 18.1387768
409 137 1 0.414999992 5.71104622 22.8794479 24.9907017
410 137 2 -0.829999983 6.26143122 23.6653233 24.9833813
411 137 1 0.414999992 5.64427519 24.3922138 25.0897427
412 138 1 0.414999992 24.9336052 3.61863685 25.1448936
413 138 2 -0.829999983 25.3492718 2.81990528 25.4762611
414 138 1 0.414999992 25.6133919 3.04001617 26.3719845
415 139 1 0.414999992 24.0477543 8.21880627 24.6121120
416 139 2 -0.829999983 23.3890553 7.54694986 24.4240875
417 139 1 0.414999992 22.6334248 8.03693867 24.0931969
418 140 1 0.414999992 20.5334034 26.6155968 22.0007725
419 140 2 -0.829999983 21.4766655 26.7382603 21.8751965
420 140 1 0.414999992 21.6071739 27.6863117 21.9434242
421 141 1 0.414999992 19.4596558 14.6258535 21.2573071
422 141 2 -0.829999983 19.1847820 14.2596807 22.1004524
423 141 1 0.414999992 19.7929039 13.5343704 22.2574425
424 142 1 0.414999992 18.9272823 27.1520748 5.30959892
425 142 2 -0.829999983 18.1304607 26.7502346 5.66192198
426 142 1 0.414999992 17.6406689 27.4816952 6.04350042
427 143 1 0.414999992 25.7173100 7.90077925 1.60576165
428 143 2 -0.829999983 25.9968529 8.73188400 1.99519968
429 143 1 0.414999992 25.1992779 9.09475231 2.38592601
430 144 1 0.414999992 27.0943604 27.7214642 7.56439590
431 144 2 -0.829999983 27.2390976 27.3987904 6.67253304
432 144 1 0.414999992 27.1758728 26.4444866 6.74876118
433 145 1 0.414999992 26.7013874 25.1295776 28.9140034
434 145 2 -0.829999983 27.4415932 24.6544361 28.5307331
435 145 1 0.414999992 27.0583553 23.8404884 28.1974125
436 146 1 0.414999992 15.6764250 13.0531864 26.3719616
437 146 2 -0.829999983 16.0706787 12.2068014 26.1511288
438 146 1 0.414999992 16.3167973 12.2897463 25.2275028
439 147 1 0.414999992 9.75856972 14.2658520 10.8918581
440 147 2 -0.829999983 10.0625763 13.8314342 11.6914663
441 147 1 0.414999992 11.0016499 14.0246449 11.7280569
442 148 1 0.414999992 0.862517238 30.3579865 25.2343826
443 148 2 -0.829999983 0.134438649 30.1900711 25.8362465
444 148 1 0.414999992 -0.621061146 30.0405502 25.2640457
445 149 1 0.414999992 23.0590305 18.5592060 20.1419334
446 149 2 -0.829999983 23.7261715 18.8579903 20.7633801
447 149 1 0.414999992 24.2601948 18.0797272 20.9357071
448 150 1 0.414999992 9.91917706 13.7261925 27.3832474
449 150 2 -0.829999983 9.20603848 13.3499784 26.8632030
450 150 1 0.414999992 9.64390945 12.9467297 26.1107330
451 151 1 0.414999992 11.2293673 23.8744106 4.90678549
452 151 2 -0.829999983 10.6431122 24.5906696 4.65408039
453 151 1 0.414999992 11.2305536 25.2900772 4.36040878
454 152 1 0.414999992 5.15419960 0.354088068 13.2354126
455 152 2 -0.829999983 4.39575815 3.40458266E-02 12.7425671
456 152 1 0.414999992 4.63503456 -0.858924925 12.4858284
457 153 1 0.414999992 17.4514294 23.2838287 10.2570848
458 153 2 -0.829999983 17.5139179 24.1325035 10.7002420
459 153 1 0.414999992 16.6232033 24.3080025 11.0105448
460 154 1 0.414999992 16.8707199 13.1514711 15.4987011
461 154 2 -0.829999983 16.2190762 13.8383112 15.6541262
462 154 1 0.414999992 15.7541943 13.9221754 14.8190432
463 155 1 0.414999992 26.0951614 26.8326263 25.8148689
464 155 2 -0.829999983 26.6396580 27.4398594 26.2054501
465 155 1 0.414999992 26.4949188 28.2656746 25.7389526
466 156 1 0.414999992 14.1264181 29.6674042 3.82911277
467 156 2 -0.829999983 14.7049074 30.0059566 3.14262104
468 156 1 0.414999992 15.5920010 30.0130672 3.55525136
469 157 1 0.414999992 28.4838200 7.00876904 1.57674158
470 157 2 -0.829999983 28.3564606 6.08995247 1.33159292
471 157 1 0.414999992 27.3932018 5.99625015 1.19272602
472 158 1 0.414999992 22.7369404 26.3597069 5.85861301
473 158 2 -0.829999983 23.6056290 26.2460384 5.46749496
474 158 1 0.414999992 23.5443382 26.6814423 4.61475945
475 159 1 0.414999992 12.6561441 4.70059061 21.1145630
476 159 2 -0.829999983 13.1668568 5.48128939 21.3387108
477 159 1 0.414999992 12.5110254 6.13061285 21.6010551
478 160 1 0.414999992 10.4864969 8.48414993 7.15284204
479 160 2 -0.829999983 10.1085949 8.60286045 8.02672672
480 160 1 0.414999992 10.8674412 8.66449738 8.61058617
481 161 1 0.414999992 16.0895138 25.6978111 2.60718346
482 161 2 -0.829999983 15.5941658 25.6354446 1.78789651
483 161 1 0.414999992 15.6359873 26.5179176 1.41370022
484 162 1 0.414999992 27.8048420 8.92693520 2.20316172
485 162 2 -0.829999983 28.6799011 8.85755825 1.81586754
486 162 1 0.414999992 29.0898018 9.70656013 1.99397123
487 163 1 0.414999992 5.89951372 15.5881367 16.0743198
488 163 2 -0.829999983 5.81755257 15.6806479 15.1575289
489 163 1 0.414999992 6.33689451 15.1386652 14.6924925
490 164 1 0.414999992 25.0562019 27.9131413 18.3431606
491 164 2 -0.829999983 24.4721050 28.3021049 18.9974651
492 164 1 0.414999992 24.6517944 29.2434292 18.9510002
493 165 1 0.414999992 1.84027958 21.9155655 1.37718546
494 165 2 -0.829999983 1.65956247 20.9738026 1.34718692
495 165 1 0.414999992 0.902913392 20.8925228 0.762859166
496 166 1 0.414999992 20.8852615 30.4543877 4.15077305
497 166 2 -0.829999983 21.6797695 29.9514694 3.95995569
498 166 1 0.414999992 21.6543713 29.8124943 3.01095748
499 167 1 0.414999992 11.4600067 11.6250925 2.53709102
500 167 2 -0.829999983 12.1266108 10.9412384 2.62917829
501 167 1 0.414999992 12.0604439 10.6625624 3.54487157
502 168 1 0.414999992 4.47885561 20.8750916 4.03189421
503 168 2 -0.829999983 3.73234463 21.4760494 4.07779884
504 168 1 0.414999992 2.96172619 20.9059944 4.03642607
505 169 1 0.414999992 13.2516594 10.5102777 13.6672459
506 169 2 -0.829999983 13.9757013 9.91536808 13.3977747
507 169 1 0.414999992 14.6257668 9.99292469 14.0991898
508 170 1 0.414999992 29.9151974 12.9420948 18.4417458
509 170 2 -0.829999983 30.0026798 12.9870358 17.4873371
510 170 1 0.414999992 29.1359501 13.2594519 17.1789322
511 171 1 0.414999992 17.0875034 15.9792004 24.8315315
512 171 2 -0.829999983 17.1964626 16.9049835 24.6044540
513 171 1 0.414999992 16.8853092 17.3805428 25.3774738
514 172 1 0.414999992 7.72691441 14.2011280 9.29770756
515 172 2 -0.829999983 7.75512934 14.9176054 9.93519020
516 172 1 0.414999992 6.89918327 14.8885832 10.3676882
517 173 1 0.414999992 15.3572226 6.38620234 14.5902729
518 173 2 -0.829999983 15.0655317 5.79325676 13.8946495
519 173 1 0.414999992 14.8850336 6.36843872 13.1482496
520 174 1 0.414999992 0.811505139 29.8776875 14.1680317
521 174 2 -0.829999983 0.150851861 29.3256550 14.6030827
522 174 1 0.414999992 -5.46682253E-02 28.6562309 13.9221563
523 175 1 0.414999992 30.2696457 11.0660810 15.6383343
524 175 2 -0.829999983 30.0593166 10.8316031 14.7320814
525 175 1 0.414999992 30.8123684 10.3160343 14.4360094
526 176 1 0.414999992 14.3823614 15.5806408 20.3112316
527 176 2 -0.829999983 13.7874403 15.9508600 19.6557846
528 176 1 0.414999992 14.2358465 15.8130741 18.8188400
529 177 1 0.414999992 9.18753910 18.1953869 15.1469498
530 177 2 -0.829999983 9.54807854 18.8516159 15.7469015
531 177 1 0.414999992 8.80815315 19.4299088 15.9437218
532 178 1 0.414999992 20.8728790 2.05247855 1.09200144
533 178 2 -0.829999983 20.3547726 2.39686704 1.72157633
534 178 1 0.414999992 20.7797356 3.25553656 1.91347086
535 179 1 0.414999992 27.4261990 12.3767357 23.8200340
536 179 2 -0.829999983 27.2792568 13.3129416 23.6702957
537 179 1 0.414999992 28.0223103 13.7443953 24.0972424
538 180 1 0.414999992 9.38441944 10.9671888 5.70256138
539 180 2 -0.829999983 9.53695679 11.7904272 6.17113113
540 180 1 0.414999992 8.65168953 12.0541868 6.49684668
541 181 1 0.414999992 1.34192920 8.91199780 29.6841068
542 181 2 -0.829999983 1.60448873 9.81239223 29.4819450