LAMMPS data file

2709 atoms
2 atom types
1806 bonds
1 bond types
903 angles
1 angle types

-1.5135300000000001e+01 1.5135300000000001e+01 xlo xhi
-1.5135300000000001e+01 1.5135300000000001e+01 ylo yhi
-1.5135300000000001e+01 1.5135300000000001e+01 zlo zhi

Masses

1 1.00800002
2 15.9994001

Pair Coeffs

1 0.00000000 0.00000000
2 0.101999998 3.18799996

Bond Coeffs # harmonic

1 450 0.9572

Angle Coeffs # harmonic

1 55 104.52

Atoms

1 1 1 0.414999992 -167.902527 -374.580841 832.361023
2 1 2 -0.829999983 -168.143158 -375.483002 832.140198
3 1 1 0.414999992 -167.606216 -375.714417 831.369812
4 2 1 0.414999992 -81.7375031 -503.531036 668.902161
5 2 2 -0.829999983 -82.4126511 -503.639038 668.229065
6 2 1 0.414999992 -82.8738327 -504.442780 668.477783
7 3 1 0.414999992 -321.354797 -505.735107 709.816650
8 3 2 -0.829999983 -321.933960 -504.948090 709.769043
9 3 1 0.414999992 -321.795135 -504.601227 708.885315
10 4 1 0.414999992 -250.977509 -197.645905 674.510559
11 4 2 -0.829999983 -251.289902 -196.840210 674.093689
12 4 1 0.414999992 -252.202255 -196.759644 674.379517
13 5 1 0.414999992 -101.841881 -470.444458 603.906250
14 5 2 -0.829999983 -102.335724 -470.164948 604.679932
15 5 1 0.414999992 -102.224442 -469.212311 604.705139
16 6 1 0.414999992 -129.088013 -312.412415 523.994141
17 6 2 -0.829999983 -128.112152 -312.417389 523.970520
18 6 1 0.414999992 -127.857567 -313.249115 524.375427
19 7 1 0.414999992 -324.650116 -387.110748 585.444946
20 7 2 -0.829999983 -324.094849 -387.628448 584.858276
21 7 1 0.414999992 -324.460632 -387.476288 583.984436
22 8 1 0.414999992 19.4581299 -443.443054 732.086243
23 8 2 -0.829999983 18.7839832 -443.912384 731.590454
24 8 1 0.414999992 18.7379074 -443.450775 730.750610
25 9 1 0.414999992 -115.476509 -472.982971 664.523010
26 9 2 -0.829999983 -114.966698 -473.059113 665.332214
27 9 1 0.414999992 -114.970604 -472.174286 665.703186
28 10 1 0.414999992 -50.4796524 -707.461853 596.758545
29 10 2 -0.829999983 -49.9598007 -706.851318 597.285278
30 10 1 0.414999992 -49.1847534 -706.670776 596.749329
31 11 1 0.414999992 -127.745010 -149.914932 761.844116
32 11 2 -0.829999983 -127.427261 -149.048569 762.106750
33 11 1 0.414999992 -127.538033 -149.030426 763.059631
34 12 1 0.414999992 -218.469421 -554.827881 550.595947
35 12 2 -0.829999983 -217.714859 -554.502747 550.100464
36 12 1 0.414999992 -217.624908 -555.116760 549.368713
37 13 1 0.414999992 182.882858 -571.533569 551.263733
38 13 2 -0.829999983 183.819061 -571.446655 551.454834
39 13 1 0.414999992 184.152817 -570.869507 550.764893
40 14 1 0.414999992 -68.7696686 -584.390442 650.675537
41 14 2 -0.829999983 -68.3508453 -584.553711 651.523132
42 14 1 0.414999992 -67.8629913 -585.370239 651.397034
43 15 1 0.414999992 38.9348640 -396.967682 654.206787
44 15 2 -0.829999983 39.6034241 -397.458099 653.913452
45 15 1 0.414999992 40.0012894 -397.878784 654.678528
46 16 1 0.414999992 77.9783478 -419.248901 484.714355
47 16 2 -0.829999983 77.2478943 -419.312408 484.095520
48 16 1 0.414999992 76.7114868 -420.034241 484.429840
49 17 1 0.414999992 -41.3350029 -378.113647 525.229614
50 17 2 -0.829999983 -41.1007767 -377.341553 525.748840
51 17 1 0.414999992 -41.0987892 -377.653381 526.656189
52 18 1 0.414999992 -138.239594 -306.780914 523.880432
53 18 2 -0.829999983 -137.913788 -305.930725 523.577942
54 18 1 0.414999992 -137.585541 -305.502686 524.371399
55 19 1 0.414999992 -185.659637 -483.623260 818.433777
56 19 2 -0.829999983 -186.135361 -484.173157 819.059753
57 19 1 0.414999992 -185.942535 -483.785217 819.915833
58 20 1 0.414999992 -212.345612 -764.787354 784.271912
59 20 2 -0.829999983 -212.371582 -764.930664 783.323608
60 20 1 0.414999992 -211.643921 -764.407410 782.981201
61 21 1 0.414999992 -50.3424339 -545.803223 594.660217
62 21 2 -0.829999983 -49.5590134 -545.763489 594.107788
63 21 1 0.414999992 -49.8963013 -545.610107 593.222778
64 22 1 0.414999992 -137.618652 -360.681549 625.969482
65 22 2 -0.829999983 -136.672287 -360.524231 625.983215
66 22 1 0.414999992 -136.559921 -359.692627 625.518066
67 23 1 0.414999992 -228.598907 -594.875977 559.203796
68 23 2 -0.829999983 -227.878189 -595.465759 558.973083
69 23 1 0.414999992 -228.309128 -596.285400 558.721924
70 24 1 0.414999992 -161.561920 -330.617279 725.575195
71 24 2 -0.829999983 -161.843292 -331.422607 725.136108
72 24 1 0.414999992 -162.772598 -331.506317 725.359497
73 25 1 0.414999992 -213.241058 -411.969330 930.022339
74 25 2 -0.829999983 -213.023346 -411.412292 930.772583
75 25 1 0.414999992 -212.425339 -410.751953 930.416382
76 26 1 0.414999992 -158.888916 -533.137634 555.924683
77 26 2 -0.829999983 -158.611618 -533.309021 556.827026
78 26 1 0.414999992 -159.340607 -533.798401 557.213867
79 27 1 0.414999992 47.8115273 -456.074036 675.518433
80 27 2 -0.829999983 48.5605850 -456.238129 674.941772
81 27 1 0.414999992 48.6476173 -455.433990 674.425720
82 28 1 0.414999992 -62.8008957 -401.966980 549.792236
83 28 2 -0.829999983 -62.3767853 -401.676971 548.981934
84 28 1 0.414999992 -61.8425941 -402.425659 548.708740
85 29 1 0.414999992 -277.409790 -458.569733 461.715485
86 29 2 -0.829999983 -276.739380 -457.967682 462.045013
87 29 1 0.414999992 -276.381348 -457.552155 461.257812
88 30 1 0.414999992 -224.654480 -492.783722 554.075134
89 30 2 -0.829999983 -223.951508 -492.307556 553.628357
90 30 1 0.414999992 -224.281357 -491.410065 553.549316
91 31 1 0.414999992 -305.757721 -665.264832 519.648438
92 31 2 -0.829999983 -306.366425 -664.966431 518.969482
93 31 1 0.414999992 -307.099335 -664.582581 519.455322
94 32 1 0.414999992 -300.126129 -757.515625 486.157349
95 32 2 -0.829999983 -299.791901 -756.701355 485.775482
96 32 1 0.414999992 -300.147125 -756.690063 484.884277
97 33 1 0.414999992 27.9464684 -436.023010 561.220581
98 33 2 -0.829999983 27.6411953 -435.187164 560.861816
99 33 1 0.414999992 27.5423660 -434.618256 561.628052
100 34 1 0.414999992 -276.767761 -336.941711 425.477753
101 34 2 -0.829999983 -276.778534 -337.013519 424.521057
102 34 1 0.414999992 -277.075195 -336.152710 424.218536
103 35 1 0.414999992 -212.743484 -489.148590 782.716431
104 35 2 -0.829999983 -211.980469 -489.726471 782.649841
105 35 1 0.414999992 -211.684555 -489.630554 781.742249
106 36 1 0.414999992 -3.76318884 -487.152161 601.620605
107 36 2 -0.829999983 -2.87786150 -487.501526 601.741760
108 36 1 0.414999992 -2.31622458 -486.724731 601.782654
109 37 1 0.414999992 -96.4848862 -553.805298 785.905334
110 37 2 -0.829999983 -96.8228760 -553.478394 786.741638
111 37 1 0.414999992 -96.6021423 -552.544678 786.741821
112 38 1 0.414999992 -117.047585 -444.694336 622.539673
113 38 2 -0.829999983 -117.076706 -445.411469 621.902954
114 38 1 0.414999992 -117.403435 -446.139404 622.375427
115 39 1 0.414999992 -164.021576 -395.829071 546.451965
116 39 2 -0.829999983 -164.418198 -396.082733 547.287964
117 39 1 0.414999992 -163.957138 -396.885803 547.539124
118 40 1 0.414999992 -158.863251 -500.383698 585.485901
119 40 2 -0.829999983 -158.798431 -500.840668 584.710266
120 40 1 0.414999992 -157.917953 -500.676727 584.366150
121 41 1 0.414999992 0.825753570 -426.763275 747.297791
122 41 2 -0.829999983 1.24287236 -427.358612 747.923950
123 41 1 0.414999992 1.53385222 -426.789673 748.639648
124 42 1 0.414999992 -86.5314255 -514.888000 480.641968
125 42 2 -0.829999983 -86.5370941 -515.846619 480.680939
126 42 1 0.414999992 -85.8827896 -515.986694 481.269012
127 43 1 0.414999992 -100.198006 -522.003418 606.301758
128 43 2 -0.829999983 -100.541992 -521.150391 606.028809
129 43 1 0.414999992 -99.8129120 -520.541931 606.165894
130 44 1 0.414999992 -141.726395 -589.563782 638.999023
131 44 2 -0.829999983 -141.815140 -589.758362 639.934387
132 44 1 0.414999992 -142.577576 -590.338318 639.988098
133 45 1 0.414999992 -134.188309 -465.030457 600.303040
134 45 2 -0.829999983 -134.889313 -464.655518 600.840210
135 45 1 0.414999992 -135.275574 -465.408905 601.291565
136 46 1 0.414999992 -160.704788 -545.385925 498.190033
137 46 2 -0.829999983 -160.582550 -546.331726 498.295319
138 46 1 0.414999992 -159.632523 -546.444946 498.367340
139 47 1 0.414999992 -144.900223 -407.330658 606.327148
140 47 2 -0.829999983 -145.240051 -407.878601 605.616699
141 47 1 0.414999992 -146.065384 -407.459869 605.363647
142 48 1 0.414999992 53.7479935 -515.267395 624.062073
143 48 2 -0.829999983 53.5642815 -516.116821 624.416565
144 48 1 0.414999992 52.9619331 -516.443542 623.744995
145 49 1 0.414999992 -231.234634 -650.207825 585.867920
146 49 2 -0.829999983 -231.715164 -650.191772 586.698242
147 49 1 0.414999992 -231.556610 -651.055542 587.084656
148 50 1 0.414999992 -111.479645 -501.480438 453.361176
149 50 2 -0.829999983 -110.863464 -501.081085 453.978729
150 50 1 0.414999992 -110.393707 -501.823669 454.363983
151 51 1 0.414999992 80.6453629 -607.603516 512.050232
152 51 2 -0.829999983 79.9683762 -608.013062 512.592896
153 51 1 0.414999992 80.2104492 -608.941101 512.619751
154 52 1 0.414999992 11.8704205 -564.829834 611.629150
155 52 2 -0.829999983 11.1703510 -564.223022 611.878540
156 52 1 0.414999992 11.0042839 -563.708496 611.085938
157 53 1 0.414999992 -185.794815 -482.177551 524.374207
158 53 2 -0.829999983 -185.646576 -482.035736 523.436951
159 53 1 0.414999992 -185.668335 -482.915283 523.054199
160 54 1 0.414999992 -201.077255 -364.149414 522.720215
161 54 2 -0.829999983 -201.598907 -364.394104 521.953064
162 54 1 0.414999992 -200.951004 -364.568054 521.267151
163 55 1 0.414999992 -250.751938 -493.687714 576.345398
164 55 2 -0.829999983 -250.827179 -493.393829 575.435181
165 55 1 0.414999992 -249.934830 -493.455170 575.088074
166 56 1 0.414999992 -288.106537 -519.353271 635.748657
167 56 2 -0.829999983 -288.429993 -518.501038 635.449402
168 56 1 0.414999992 -288.077789 -518.406006 634.549133
169 57 1 0.414999992 -375.446075 -296.112793 508.324890
170 57 2 -0.829999983 -376.171661 -295.637634 508.735138
171 57 1 0.414999992 -375.974762 -295.651581 509.601471
172 58 1 0.414999992 -222.660446 -154.178238 588.883301
173 58 2 -0.829999983 -222.684769 -155.106720 589.123901
174 58 1 0.414999992 -221.776505 -155.321426 589.346375
175 59 1 0.414999992 -157.653732 -282.624664 838.965332
176 59 2 -0.829999983 -157.898193 -282.595581 838.023682
177 59 1 0.414999992 -157.825745 -281.668579 837.787109
178 60 1 0.414999992 -314.238068 -349.823456 620.014282
179 60 2 -0.829999983 -314.673401 -350.670990 619.901550
180 60 1 0.414999992 -315.607727 -350.457458 619.857056
181 61 1 0.414999992 -25.9514351 -343.029114 637.425598
182 61 2 -0.829999983 -25.0907726 -343.418549 637.593323
183 61 1 0.414999992 -24.6117649 -342.743591 638.078613
184 62 1 0.414999992 -90.5788345 -591.861938 599.728638
185 62 2 -0.829999983 -90.4462509 -590.960815 599.427002
186 62 1 0.414999992 -90.3493576 -590.449219 600.232849
187 63 1 0.414999992 -110.958504 -219.995071 734.482666
188 63 2 -0.829999983 -111.477432 -219.487137 735.109741
189 63 1 0.414999992 -111.158966 -218.587326 735.012451
190 64 1 0.414999992 -95.4897614 -319.205322 641.687561
191 64 2 -0.829999983 -95.9048462 -319.592957 640.953308
192 64 1 0.414999992 -96.1684189 -320.423096 641.355652
193 65 1 0.414999992 -445.470581 -370.952911 301.479675
194 65 2 -0.829999983 -444.763855 -371.455719 301.222626
195 65 1 0.414999992 -444.696991 -371.439484 300.268280
196 66 1 0.414999992 -436.900024 -405.864349 656.568787
197 66 2 -0.829999983 -437.657532 -405.963959 657.149109
198 66 1 0.414999992 -438.424652 -405.789978 656.570740
199 67 1 0.414999992 -85.5146637 -570.935242 395.414246
200 67 2 -0.829999983 -86.0873337 -570.166321 395.450348
201 67 1 0.414999992 -86.9621887 -570.525330 395.612457
202 68 1 0.414999992 -149.696808 -423.506958 643.598877
203 68 2 -0.829999983 -149.201920 -422.754669 643.930054
204 68 1 0.414999992 -148.411133 -422.729156 643.387329
205 69 1 0.414999992 -125.799370 -461.604797 552.226013
206 69 2 -0.829999983 -125.467453 -461.582214 551.326050
207 69 1 0.414999992 -125.793594 -462.392456 550.929016
208 70 1 0.414999992 -364.618683 -476.284485 534.875061
209 70 2 -0.829999983 -365.160278 -475.698914 535.408325
210 70 1 0.414999992 -364.838013 -474.819000 535.202209
211 71 1 0.414999992 -350.818512 -522.995544 538.514221
212 71 2 -0.829999983 -350.019623 -523.512146 538.390015
213 71 1 0.414999992 -349.977295 -523.666016 537.443970
214 72 1 0.414999992 -122.300285 -579.087524 666.731873
215 72 2 -0.829999983 -122.228508 -579.712036 667.456726
216 72 1 0.414999992 -122.486633 -580.553772 667.075500
217 73 1 0.414999992 -232.038391 -415.698212 664.024353
218 73 2 -0.829999983 -231.452286 -416.190033 663.445435
219 73 1 0.414999992 -230.782700 -416.550201 664.030701
220 74 1 0.414999992 63.6555824 -400.095032 881.070679
221 74 2 -0.829999983 64.3023300 -399.422913 881.295349
222 74 1 0.414999992 64.6054459 -399.664642 882.173035
223 75 1 0.414999992 -341.934723 -614.088867 398.524384
224 75 2 -0.829999983 -342.422119 -614.689026 399.092529
225 75 1 0.414999992 -341.789948 -614.950073 399.765381
226 76 1 0.414999992 -158.761810 -680.590576 631.888062
227 76 2 -0.829999983 -158.893692 -681.528381 632.041626
228 76 1 0.414999992 -158.253754 -681.753357 632.720154
229 77 1 0.414999992 -229.735336 -544.979004 605.797302
230 77 2 -0.829999983 -228.831696 -544.675415 605.688843
231 77 1 0.414999992 -228.320786 -545.220886 606.290527
232 78 1 0.414999992 -374.033905 -322.314941 502.541321
233 78 2 -0.829999983 -374.606323 -323.048401 502.307037
234 78 1 0.414999992 -374.775818 -322.931458 501.369934
235 79 1 0.414999992 -149.681305 -646.260742 285.007538
236 79 2 -0.829999983 -149.644257 -646.079407 284.066101
237 79 1 0.414999992 -148.733948 -645.821777 283.906372
238 80 1 0.414999992 -186.181183 -346.550781 488.578308
239 80 2 -0.829999983 -185.648544 -346.908447 487.864929
240 80 1 0.414999992 -186.244781 -347.488739 487.387146
241 81 1 0.414999992 -296.660126 -503.145111 591.879272
242 81 2 -0.829999983 -296.679352 -502.562744 592.641479
243 81 1 0.414999992 -295.755829 -502.423157 592.860962
244 82 1 0.414999992 -207.781769 -548.328979 606.478088
245 82 2 -0.829999983 -208.343552 -548.141846 605.723145
246 82 1 0.414999992 -209.067429 -548.766724 605.801208
247 83 1 0.414999992 -130.116089 -405.170502 624.103088
248 83 2 -0.829999983 -130.064941 -405.508331 623.206543
249 83 1 0.414999992 -129.134842 -405.447266 622.979126
250 84 1 0.414999992 -176.809479 -407.775970 633.017090
251 84 2 -0.829999983 -176.399307 -408.641724 633.069519
252 84 1 0.414999992 -175.988754 -408.661316 633.936462
253 85 1 0.414999992 -242.578384 -620.507263 607.536011
254 85 2 -0.829999983 -241.871292 -620.991028 607.448914
255 85 1 0.414999992 -241.154373 -620.354187 607.480408
256 86 1 0.414999992 -61.6412506 -390.291992 568.979614
257 86 2 -0.829999983 -60.9581604 -390.934906 569.181091
258 86 1 0.414999992 -60.4512901 -391.009552 568.369873
259 87 1 0.414999992 -7.95820713 -777.875000 468.198456
260 87 2 -0.829999983 -7.35992956 -778.554260 468.516571
261 87 1 0.414999992 -6.74246693 -778.085449 469.081818
262 88 1 0.414999992 65.6769867 -192.115723 554.191528
263 88 2 -0.829999983 66.1263123 -192.323471 553.369629
264 88 1 0.414999992 66.7296448 -191.590027 553.233276
265 89 1 0.414999992 -278.656830 -526.851746 362.383942
266 89 2 -0.829999983 -277.947906 -527.490967 362.481049
267 89 1 0.414999992 -277.636353 -527.642395 361.586334
268 90 1 0.414999992 64.3789597 -357.421417 785.496033
269 90 2 -0.829999983 64.0876541 -356.830933 784.798157
270 90 1 0.414999992 64.5132294 -355.994476 784.997498
271 91 1 0.414999992 -183.434006 -687.602844 509.061615
272 91 2 -0.829999983 -184.023163 -688.137573 509.597778
273 91 1 0.414999992 -184.750961 -688.355103 509.011658
274 92 1 0.414999992 27.6201801 -468.223663 456.428802
275 92 2 -0.829999983 28.3625546 -467.845032 455.953339
276 92 1 0.414999992 28.4271183 -466.925903 456.278992
277 93 1 0.414999992 -7.82612658 -496.580719 572.788269
278 93 2 -0.829999983 -7.65232992 -495.898590 573.440247
279 93 1 0.414999992 -7.08727407 -495.270111 572.986084
280 94 1 0.414999992 -103.706863 -621.174988 510.179749
281 94 2 -0.829999983 -103.546761 -620.727966 511.013428
282 94 1 0.414999992 -103.826004 -621.357483 511.681458
283 95 1 0.414999992 -329.346161 -383.769196 716.414368
284 95 2 -0.829999983 -329.940033 -383.734558 717.167114
285 95 1 0.414999992 -329.390198 -383.967133 717.918213
286 96 1 0.414999992 5.43243742 -413.997101 711.357361
287 96 2 -0.829999983 5.81503963 -413.120850 711.277832
288 96 1 0.414999992 6.56499195 -413.238190 710.690979
289 97 1 0.414999992 -274.001587 -495.401703 678.360107
290 97 2 -0.829999983 -274.158752 -495.874176 677.525024
291 97 1 0.414999992 -273.448273 -495.602386 676.940369
292 98 1 0.414999992 -131.009018 -329.610474 536.207458
293 98 2 -0.829999983 -130.941559 -329.152313 535.367188
294 98 1 0.414999992 -130.016724 -328.905609 535.301270
295 99 1 0.414999992 -164.477646 -626.041931 727.196045
296 99 2 -0.829999983 -163.835846 -626.754822 727.216797
297 99 1 0.414999992 -163.785706 -627.059937 726.308533
298 100 1 0.414999992 -184.873642 -612.855164 450.322906
299 100 2 -0.829999983 -184.618103 -613.613525 450.003326
300 100 1 0.414999992 -183.662216 -613.592468 450.083313
301 101 1 0.414999992 -152.525955 -424.730957 615.594543
302 101 2 -0.829999983 -152.701279 -424.627686 614.656921
303 101 1 0.414999992 -152.847382 -423.686462 614.541748
304 102 1 0.414999992 -197.365036 -505.274536 547.859009
305 102 2 -0.829999983 -196.843796 -506.069275 547.990356
306 102 1 0.414999992 -196.369370 -505.913147 548.809570
307 103 1 0.414999992 -232.831177 -561.713989 681.041321
308 103 2 -0.829999983 -232.887100 -561.268677 680.193298
309 103 1 0.414999992 -232.492081 -560.407959 680.347107
310 104 1 0.414999992 -84.6708145 -338.002991 702.039062
311 104 2 -0.829999983 -84.3765640 -338.851349 701.701050
312 104 1 0.414999992 -85.1296234 -339.433197 701.823059
313 105 1 0.414999992 50.3617058 -445.651428 805.294006
314 105 2 -0.829999983 50.8252182 -446.479156 805.437439
315 105 1 0.414999992 51.2085915 -446.691223 804.583862
316 106 1 0.414999992 -155.065781 -743.455933 578.244385
317 106 2 -0.829999983 -155.367691 -743.222534 577.364136
318 106 1 0.414999992 -156.176041 -743.725647 577.245789
319 107 1 0.414999992 -561.423523 -214.626373 769.105652
320 107 2 -0.829999983 -561.141785 -213.939194 768.495300
321 107 1 0.414999992 -561.523804 -213.131638 768.864075
322 108 1 0.414999992 -84.3772430 -547.181946 714.757935
323 108 2 -0.829999983 -84.2541733 -548.112610 714.955933
324 108 1 0.414999992 -84.1071930 -548.139526 715.903687
325 109 1 0.414999992 -267.144562 -482.854980 677.645142
326 109 2 -0.829999983 -266.793671 -483.659698 677.258057
327 109 1 0.414999992 -267.559357 -484.227203 677.147583
328 110 1 0.414999992 -95.3466492 -483.836884 448.348816
329 110 2 -0.829999983 -96.0206985 -483.694794 449.016663
330 110 1 0.414999992 -95.5640106 -483.237701 449.725922
331 111 1 0.414999992 -186.360062 -426.946167 779.082825
332 111 2 -0.829999983 -186.041122 -426.904602 779.986755
333 111 1 0.414999992 -185.815125 -425.981720 780.119934
334 112 1 0.414999992 43.9807587 -406.167877 472.584167
335 112 2 -0.829999983 44.1318207 -406.006775 473.517853
336 112 1 0.414999992 43.8650818 -406.821472 473.948761
337 113 1 0.414999992 -214.998459 -456.887695 609.140503
338 113 2 -0.829999983 -214.055466 -456.830963 608.972839
339 113 1 0.414999992 -213.955658 -457.114319 608.061646
340 114 1 0.414999992 -288.604980 -510.997772 406.548950
341 114 2 -0.829999983 -288.978607 -510.612366 405.753693
342 114 1 0.414999992 -288.707550 -509.679779 405.795197
343 115 1 0.414999992 -259.045471 -327.861969 671.413025
344 115 2 -0.829999983 -258.830841 -328.435608 670.674500
345 115 1 0.414999992 -259.246002 -329.272888 670.891724
346 116 1 0.414999992 -169.612488 -519.491211 473.847870
347 116 2 -0.829999983 -170.460175 -519.939087 473.885132
348 116 1 0.414999992 -170.464554 -520.375061 474.739807
349 117 1 0.414999992 -197.844421 -293.134979 774.960999
350 117 2 -0.829999983 -198.756439 -292.992889 774.699158
351 117 1 0.414999992 -198.963120 -293.731506 774.094482
352 118 1 0.414999992 -160.285599 -631.125183 644.537354
353 118 2 -0.829999983 -159.416946 -631.234131 644.929932
354 118 1 0.414999992 -158.949585 -631.812134 644.323303
355 119 1 0.414999992 -8.84985352 -471.047668 696.438049
356 119 2 -0.829999983 -8.47960854 -471.872742 696.393860
357 119 1 0.414999992 -9.23167419 -472.442322 696.219177
358 120 1 0.414999992 -104.598213 -713.457336 534.351013
359 120 2 -0.829999983 -103.972252 -712.739014 534.238159
360 120 1 0.414999992 -103.508560 -712.690063 535.076660
361 121 1 0.414999992 -132.269531 -302.196655 583.612671
362 121 2 -0.829999983 -132.494186 -302.456543 582.716797
363 121 1 0.414999992 -133.450912 -302.393982 582.680969
364 122 1 0.414999992 -252.846786 -406.533691 605.038635
365 122 2 -0.829999983 -253.572769 -407.043365 604.672974
366 122 1 0.414999992 -254.285492 -406.408936 604.572510
367 123 1 0.414999992 -201.814148 -589.500305 391.506531
368 123 2 -0.829999983 -201.123123 -588.926697 391.168823
369 123 1 0.414999992 -200.321442 -589.449219 391.238373
370 124 1 0.414999992 -119.750977 -662.551941 596.965088
371 124 2 -0.829999983 -120.259026 -663.362976 597.033508
372 124 1 0.414999992 -120.190384 -663.763855 596.164490
373 125 1 0.414999992 -122.045433 -464.064972 634.948730
374 125 2 -0.829999983 -121.448593 -463.403107 634.551392
375 125 1 0.414999992 -120.700150 -463.906433 634.224243
376 126 1 0.414999992 -169.671722 -440.768372 569.520691
377 126 2 -0.829999983 -170.100128 -440.269257 568.822205
378 126 1 0.414999992 -169.679489 -439.407379 568.849609
379 127 1 0.414999992 -138.696594 -381.492889 435.464722
380 127 2 -0.829999983 -139.044556 -382.377350 435.333588
381 127 1 0.414999992 -138.762985 -382.617828 434.448456
382 128 1 0.414999992 -290.010437 -417.407532 575.289246
383 128 2 -0.829999983 -290.871368 -417.340393 574.871094
384 128 1 0.414999992 -291.382996 -418.053894 575.257996
385 129 1 0.414999992 -99.8639526 -508.234558 438.645844
386 129 2 -0.829999983 -99.8178329 -507.968933 439.566650
387 129 1 0.414999992 -99.4354248 -507.089264 439.544403
388 130 1 0.414999992 -89.2504883 -281.408600 870.272461
389 130 2 -0.829999983 -88.9593430 -280.847168 870.993958
390 130 1 0.414999992 -89.4850540 -280.049469 870.905273
391 131 1 0.414999992 -52.7152176 -408.385284 542.458191
392 131 2 -0.829999983 -52.2452087 -408.228119 543.279724
393 131 1 0.414999992 -52.8601723 -407.723297 543.815918
394 132 1 0.414999992 -183.226028 -512.270386 663.991272
395 132 2 -0.829999983 -183.342453 -511.319550 663.937927
396 132 1 0.414999992 -182.487289 -510.987915 663.656433
397 133 1 0.414999992 -236.249344 -450.524200 539.957703
398 133 2 -0.829999983 -236.153931 -450.581665 539.004761
399 133 1 0.414999992 -236.361740 -449.699951 538.688599
400 134 1 0.414999992 114.011063 -277.515686 535.482971
401 134 2 -0.829999983 114.966072 -277.605347 535.461670
402 134 1 0.414999992 115.289497 -276.708710 535.352295
403 135 1 0.414999992 10.6047583 -586.285767 639.194153
404 135 2 -0.829999983 11.3772116 -586.423706 639.746277
405 135 1 0.414999992 11.0374146 -586.901855 640.529602
406 136 1 0.414999992 -103.668877 -367.770233 444.848419
407 136 2 -0.829999983 -103.758888 -367.937683 445.788818
408 136 1 0.414999992 -104.198555 -368.788879 445.840607
409 137 1 0.414999992 14.4189043 -403.281555 713.000671
410 137 2 -0.829999983 14.4426689 -403.399414 712.048767
411 137 1 0.414999992 13.8994274 -402.687378 711.704590
412 138 1 0.414999992 -25.3867931 -742.857605 641.228394
413 138 2 -0.829999983 -26.1315765 -742.917664 640.626526
414 138 1 0.414999992 -26.8927174 -742.683289 641.161560
415 139 1 0.414999992 42.3610687 -257.487823 856.230103
416 139 2 -0.829999983 41.6720352 -257.402313 856.892334
417 139 1 0.414999992 41.0373955 -258.086273 856.668762
418 140 1 0.414999992 -194.387497 -422.816681 741.324036
419 140 2 -0.829999983 -193.770966 -422.282318 741.828918
420 140 1 0.414999992 -193.377228 -422.894867 742.453613
421 141 1 0.414999992 -190.213287 -594.114380 412.557556
422 141 2 -0.829999983 -191.066483 -593.914734 412.166748
423 141 1 0.414999992 -191.546371 -593.454956 412.858734
424 142 1 0.414999992 29.0728874 -414.366852 728.694885
425 142 2 -0.829999983 28.2629814 -413.903015 728.917236
426 142 1 0.414999992 28.5214653 -412.980713 728.972717
427 143 1 0.414999992 86.1315231 -504.210938 793.010742
428 143 2 -0.829999983 85.3767319 -503.906555 793.518860
429 143 1 0.414999992 85.6181335 -504.074280 794.432129
430 144 1 0.414999992 -267.820343 -562.905884 620.528503
431 144 2 -0.829999983 -268.437256 -562.392639 621.054321
432 144 1 0.414999992 -268.271454 -562.669373 621.957886
433 145 1 0.414999992 -59.4381599 -660.705872 554.936646
434 145 2 -0.829999983 -58.6107063 -661.177246 555.053650
435 145 1 0.414999992 -58.2853317 -661.317078 554.161987
436 146 1 0.414999992 91.7699356 -519.662781 567.679565
437 146 2 -0.829999983 91.2418976 -520.355042 568.082703
438 146 1 0.414999992 90.3340759 -520.092407 567.917114
439 147 1 0.414999992 21.0221081 -399.987122 578.629456
440 147 2 -0.829999983 21.5005798 -400.753906 578.951355
441 147 1 0.414999992 22.3552437 -400.703400 578.518311
442 148 1 0.414999992 -95.5223618 -476.109406 611.128784
443 148 2 -0.829999983 -95.1902618 -477.008759 611.166321
444 148 1 0.414999992 -95.3776627 -477.370819 610.297791
445 149 1 0.414999992 -320.479004 -400.925171 439.040649
446 149 2 -0.829999983 -319.883301 -401.537781 438.604309
447 149 1 0.414999992 -320.432129 -401.988983 437.959503
448 150 1 0.414999992 -186.415726 -438.585938 535.713257
449 150 2 -0.829999983 -186.526459 -438.611511 536.665955
450 150 1 0.414999992 -187.382339 -439.024658 536.797607
451 151 1 0.414999992 -213.941956 -347.331512 674.917175
452 151 2 -0.829999983 -214.573441 -347.011810 675.564941
453 151 1 0.414999992 -214.047577 -346.494843 676.178711
454 152 1 0.414999992 -54.7825737 -365.532562 547.413269
455 152 2 -0.829999983 -54.6269836 -364.643921 547.739868
456 152 1 0.414999992 -55.0807114 -364.615234 548.584778
457 153 1 0.414999992 -72.6643372 -237.450745 583.411865
458 153 2 -0.829999983 -71.7527008 -237.269073 583.174255
459 153 1 0.414999992 -71.8073120 -236.545441 582.546692
460 154 1 0.414999992 -165.170609 -399.228424 612.577698
461 154 2 -0.829999983 -164.479385 -399.246246 613.242859
462 154 1 0.414999992 -164.611725 -398.441895 613.748840
463 155 1 0.414999992 -218.613525 -520.783569 674.003540
464 155 2 -0.829999983 -218.988373 -520.067017 673.598816
465 155 1 0.414999992 -219.915985 -520.282593 673.482178
466 156 1 0.414999992 -94.8805542 -467.728790 559.277222
467 156 2 -0.829999983 -95.4029465 -466.926636 559.212463
468 156 1 0.414999992 -94.8755951 -466.255035 559.690063
469 157 1 0.414999992 -167.593704 -510.064514 487.078217
470 157 2 -0.829999983 -167.696106 -509.919434 486.135345
471 157 1 0.414999992 -167.557495 -508.959686 486.010437
472 158 1 0.414999992 -332.953766 -440.344727 560.303467
473 158 2 -0.829999983 -333.428741 -439.919769 559.586304
474 158 1 0.414999992 -332.747650 -439.477264 559.075623
475 159 1 0.414999992 -86.3736191 -661.025696 620.821899
476 159 2 -0.829999983 -87.2664795 -661.127197 620.485657
477 159 1 0.414999992 -87.5359726 -662.000244 620.778442
478 160 1 0.414999992 -178.046677 -433.801178 469.300964
479 160 2 -0.829999983 -177.790497 -433.706451 468.381195
480 160 1 0.414999992 -177.465561 -432.806244 468.313507
481 161 1 0.414999992 -275.930389 -376.289337 644.020325
482 161 2 -0.829999983 -275.939545 -375.965515 643.117249
483 161 1 0.414999992 -275.761658 -375.026062 643.196716
484 162 1 0.414999992 -125.777451 -338.371674 272.176086
485 162 2 -0.829999983 -126.194328 -339.113983 271.733673
486 162 1 0.414999992 -125.773033 -339.148163 270.872345
487 163 1 0.414999992 -139.856445 -553.277405 581.498718
488 163 2 -0.829999983 -139.718094 -553.787170 582.258179
489 163 1 0.414999992 -138.869247 -553.966675 582.422363
490 164 1 0.414999992 -447.054626 -417.110107 504.612244
491 164 2 -0.829999983 -447.149078 -416.992035 505.559723
492 164 1 0.414999992 -446.373383 -417.415375 505.933380
493 165 1 0.414999992 96.6543274 -405.730682 601.828491
494 165 2 -0.829999983 96.4702759 -405.915192 602.751831
495 165 1 0.414999992 97.2059402 -405.523071 603.226807
496 166 1 0.414999992 -154.939804 -514.697449 748.790039
497 166 2 -0.829999983 -154.848450 -514.960999 749.708069
498 166 1 0.414999992 -153.903717 -515.071716 749.833679
499 167 1 0.414999992 -157.595947 -353.660431 418.273865
500 167 2 -0.829999983 -157.942169 -353.791046 417.388672
501 167 1 0.414999992 -158.039185 -354.742004 417.306213
502 168 1 0.414999992 -65.0739975 -380.356049 587.812378
503 168 2 -0.829999983 -64.8056412 -379.435059 587.795044
504 168 1 0.414999992 -64.2690430 -379.325989 588.582886
505 169 1 0.414999992 -114.293671 -554.669983 542.817261
506 169 2 -0.829999983 -114.790573 -553.915405 542.450562
507 169 1 0.414999992 -115.141914 -553.461121 543.219177
508 170 1 0.414999992 -387.096863 -557.942200 638.498169
509 170 2 -0.829999983 -386.841766 -557.509094 637.680908
510 170 1 0.414999992 -387.395844 -556.726868 637.640137
511 171 1 0.414999992 -89.7652893 -395.303253 547.904541
512 171 2 -0.829999983 -90.0322189 -395.659637 547.054688
513 171 1 0.414999992 -90.4452209 -396.499695 547.265076
514 172 1 0.414999992 -68.6167603 -568.650635 599.343689
515 172 2 -0.829999983 -67.7433167 -568.557983 598.957642
516 172 1 0.414999992 -67.8149338 -568.976685 598.097351
517 173 1 0.414999992 -232.785599 -635.266479 542.664612
518 173 2 -0.829999983 -231.956436 -635.397827 543.129150
519 173 1 0.414999992 -231.481354 -634.572632 543.011353
520 174 1 0.414999992 -167.753082 -581.703369 606.806519
521 174 2 -0.829999983 -166.903336 -581.287720 606.617737
522 174 1 0.414999992 -166.372986 -582.028687 606.265991
523 175 1 0.414999992 -68.0356598 -463.882751 734.062195
524 175 2 -0.829999983 -68.0597458 -464.549713 733.372925