LAMMPS data file via write_data, version 7 Sep 2016, timestep = 18030

1071 atoms
4 atom types
714 bonds
2 bond types
357 angles
2 angle types

-1.1200573966608310e+01 1.1200573966608310e+01 xlo xhi
-1.1200573966608310e+01 1.1200573966608310e+01 ylo yhi
-1.1200573966608310e+01 1.1200573966608310e+01 zlo zhi

Masses

1 15.035
2 14.027
3 1.008
4 15.9994

Pair Coeffs

1 0.1947 3.75 # CH3
2 0.0914 3.95 # CH2
3 0.000 0.000 # HW
4 0.1521 3.1507 # OW

Bond Coeffs # harmonic

1 95.877 1.54
2 450 0.9572

Angle Coeffs # harmonic

1 62.0965 114
2 55 104.52

Atoms # full

951 317 3 4.1699999999999998e-01 -8.5395475247360082e+00 -6.1446097472779329e+00 -7.0462528435415370e+00 0 2 -7
950 317 4 -8.3399999999999996e-01 -9.4673066465275113e+00 -6.3794308083808264e+00 -7.0650878100941217e+00 0 2 -7
949 317 3 4.1699999999999998e-01 -9.6509020559911480e+00 -6.5583501217966882e+00 -7.9873171965472887e+00 0 2 -7
371 124 4 -8.3399999999999996e-01 -1.0449271908919831e+01 -6.6566527852020814e+00 -9.7493406702118275e+00 1 -2 -1
89 30 4 -8.3399999999999996e-01 -9.5541350878043030e+00 -9.2862003806421267e+00 -5.8323237010724442e+00 -1 -2 3
90 30 3 4.1699999999999998e-01 -9.0899976031136145e+00 -8.8545442870189088e+00 -6.5495994203428385e+00 -1 -2 3
423 141 3 4.1699999999999998e-01 -9.7741765451393796e+00 -1.0999679523082513e+01 -6.2620624809606102e+00 1 2 -3
372 124 3 4.1699999999999998e-01 -1.0466068261204564e+01 -5.7001704341882196e+00 -9.7162883791334167e+00 1 -2 -1
727 243 3 4.1699999999999998e-01 -4.8072727403541196e+00 -1.0186268401841406e+01 -1.0754715537446767e+01 2 0 8
686 229 4 -8.3399999999999996e-01 -1.7943032140393917e+00 -1.5536050125085801e+00 -7.6853233876849210e+00 -1 0 -4
1009 337 3 4.1699999999999998e-01 -1.7337941523376994e+00 -4.3935809386574576e+00 -6.7454570534229008e+00 -5 6 -1
106 36 3 4.1699999999999998e-01 -6.2389837503912737e-01 -5.4552249444166963e+00 -8.1450524030166722e+00 1 1 0
326 109 4 -8.3399999999999996e-01 -1.8707089450745258e+00 -1.0928668421026213e+01 -7.6467239866197225e+00 -5 5 -1
18 6 3 4.1699999999999998e-01 -3.5079094942991569e+00 -8.4588171470906310e+00 -9.2081719797003654e+00 -1 -3 1
16 6 3 4.1699999999999998e-01 -4.8893268468905129e+00 -8.3886960956402241e+00 -8.5928151437804470e+00 -1 -3 1
17 6 4 -8.3399999999999996e-01 -4.4324272452195794e+00 -8.3546746438705863e+00 -9.4332390304268827e+00 -1 -3 1
327 109 3 4.1699999999999998e-01 -1.0688805203032725e+00 -1.0667965542666069e+01 -8.0998661324349683e+00 -5 5 -1
592 198 3 4.1699999999999998e-01 -1.1194241621958605e+01 -1.0016897291721369e+01 -1.0738777484046818e+01 0 -6 -2
58 20 3 4.1699999999999998e-01 -4.3876371500798914e+00 -5.6896071533276116e+00 -9.7822546268986859e+00 -3 5 -7
1007 336 4 -8.3399999999999996e-01 -5.2124869367291131e+00 -9.0008386180585731e+00 -6.8530788488553194e+00 -2 -2 -3
1006 336 3 4.1699999999999998e-01 -5.2034183738957198e+00 -9.8582057118912871e+00 -6.4275603918133619e+00 -2 -2 -3
1008 336 3 4.1699999999999998e-01 -5.4326374587412936e+00 -8.3873305962140829e+00 -6.1520964494714718e+00 -2 -2 -3
676 226 3 4.1699999999999998e-01 -1.0728561332628292e+01 -3.1347276298039688e+00 -1.1131624047208183e+01 -3 1 -4
3 1 1 0.0000000000000000e+00 -6.7452162646131750e+00 -3.6371127889171513e+00 -1.0361662757636264e+01 -1 1 3
1015 339 3 4.1699999999999998e-01 -6.8803512741309207e+00 -5.5303998726956101e+00 -5.6748444241599856e+00 4 2 -2
1 1 1 0.0000000000000000e+00 -8.1533672378274815e+00 -1.5156825181920439e+00 -9.9269105635169517e+00 -1 1 3
811 271 3 4.1699999999999998e-01 -5.7830083711832971e+00 -5.5393079107910843e+00 -7.9659745248179377e+00 5 2 2
2 1 2 0.0000000000000000e+00 -8.0871155877918568e+00 -3.0535887318283681e+00 -9.8817085536996725e+00 -1 1 3
647 216 4 -8.3399999999999996e-01 -6.6549517742793105e+00 -3.9845939214536230e-01 -5.9324282875489942e+00 2 -7 -8
812 271 4 -8.3399999999999996e-01 -6.6651870793756851e+00 -5.4329345330647660e+00 -7.6100350596928852e+00 5 2 2
250 84 3 4.1699999999999998e-01 -1.0321902284469337e+01 -1.4054814019522013e+00 -7.1244009811395177e+00 0 -4 -2
569 190 4 -8.3399999999999996e-01 -1.1157546510056356e+01 -3.9768747076997606e+00 -9.3481582114308690e+00 -6 -1 -2
252 84 3 4.1699999999999998e-01 -1.0811127781689624e+01 -2.7742374553641440e+00 -6.7011984440870940e+00 0 -4 -2
646 216 3 4.1699999999999998e-01 -6.4017387470599179e+00 -1.2820146805624262e+00 -6.1997109913781587e+00 2 -7 -8
813 271 3 4.1699999999999998e-01 -6.8142266643514846e+00 -4.4874303513017013e+00 -7.6165794828523055e+00 5 2 2
570 190 3 4.1699999999999998e-01 -1.0840133880413260e+01 -3.3901776440744902e+00 -8.6616679018439733e+00 -6 -1 -2
685 229 3 4.1699999999999998e-01 -2.0247089825807993e+00 -9.4422979900403270e-01 -6.9840373323714191e+00 -1 0 -4
251 84 4 -8.3399999999999996e-01 -1.0986825221672659e+01 -2.0656128878463917e+00 -7.3202416143055906e+00 0 -4 -2
211 71 3 4.1699999999999998e-01 -1.0076779413174648e+01 -4.7163721889632022e+00 -6.2481254556513965e+00 -5 -1 2
241 81 3 4.1699999999999998e-01 -4.8957155963561387e+00 -4.5845412872908575e-01 -9.6641964859556104e+00 0 1 -4
242 81 4 -8.3399999999999996e-01 -4.8670950205366754e+00 -4.4514425031781890e-01 -1.0620873315745460e+01 0 1 -4
687 229 3 4.1699999999999998e-01 -1.5561738845918374e+00 -2.3622952791962213e+00 -7.2319483551210748e+00 -1 0 -4
256 86 3 4.1699999999999998e-01 -4.4698465598036092e+00 -2.6400394527935962e+00 -7.0743798744746691e+00 -9 -6 -5
59 20 4 -8.3399999999999996e-01 -4.1797943431940743e+00 -5.1786573699184126e+00 -8.9999773529189948e+00 -3 5 -7
1010 337 4 -8.3399999999999996e-01 -1.7159750780957488e+00 -3.8789582513239154e+00 -5.9385655285286880e+00 -5 6 -1
108 36 3 4.1699999999999998e-01 -1.0894304520000588e+00 -5.1781260126041353e+00 -9.5586968621612307e+00 1 1 0
385 129 3 4.1699999999999998e-01 -1.1617180304039429e+00 -1.0622048314884225e-02 -8.8277234905803823e+00 2 5 5
107 36 4 -8.3399999999999996e-01 -1.4124019207105949e+00 -5.3059675659022014e+00 -8.6667737499668469e+00 1 1 0
257 86 4 -8.3399999999999996e-01 -5.3665838503568093e+00 -2.9541770725060896e+00 -6.9585286235344546e+00 -9 -6 -5
60 20 3 4.1699999999999998e-01 -3.2296648271542212e+00 -5.2526300452539667e+00 -8.9104496053481981e+00 -3 5 -7
258 86 3 4.1699999999999998e-01 -5.4937787694023461e+00 -2.9724325533725384e+00 -6.0099680838297109e+00 -9 -6 -5
27 9 3 4.1699999999999998e-01 -1.8741544719933234e+00 -1.0370123850005246e+01 -5.6084864249445809e+00 0 4 3
212 71 4 -8.3399999999999996e-01 -1.0051143143420743e+01 -4.0049215783866075e+00 -5.6082749853531082e+00 -5 -1 2
914 305 4 -8.3399999999999996e-01 -9.6865604797518596e+00 -8.4532402530505788e+00 -2.4550710791067623e+00 6 -3 -5
479 160 4 -8.3399999999999996e-01 -7.2604808365090960e+00 -8.9533857990851402e+00 -4.3776474505658838e+00 -2 -1 -5
913 305 3 4.1699999999999998e-01 -1.0369918672158756e+01 -9.0587869376419778e+00 -2.1677368077295007e+00 6 -3 -5
97 33 3 4.1699999999999998e-01 -5.8466606701503112e+00 -5.9802748602794047e+00 -2.3158219963105608e+00 2 -3 0
915 305 3 4.1699999999999998e-01 -9.7849759321133387e+00 -8.4142322474701849e+00 -3.4063997491984184e+00 6 -3 -5
478 160 3 4.1699999999999998e-01 -7.0275338960287446e+00 -8.0545423616577896e+00 -4.1451757782906062e+00 -2 -1 -5
480 160 3 4.1699999999999998e-01 -6.8150624199751801e+00 -9.4932706258539117e+00 -3.7246848973463766e+00 -2 -1 -5
1011 337 3 4.1699999999999998e-01 -2.1051204671343804e+00 -4.4532571612903498e+00 -5.2790437704673323e+00 -5 6 -1
958 320 3 4.1699999999999998e-01 -7.3614464569337894e+00 -7.2298166156424539e+00 -7.5364708666425173e-01 1 0 -4
98 33 4 -8.3399999999999996e-01 -5.8658441258938412e+00 -6.7332639990106671e+00 -1.7251723384145290e+00 2 -3 0
921 307 3 4.1699999999999998e-01 -1.0946217778700117e+01 -5.8352372070478999e+00 -1.1107984537232234e+00 -3 -3 -3
960 320 3 4.1699999999999998e-01 -8.5174794693414437e+00 -8.1000982497462370e+00 -1.1987216922926507e+00 1 0 -4
350 117 4 -8.3399999999999996e-01 -8.1105193761613439e+00 -1.0988175999248217e+01 -1.1942954383979476e+00 -6 11 1
920 307 4 -8.3399999999999996e-01 -1.0558642151292572e+01 -5.8380356907182067e+00 -2.3557703682173958e-01 -3 -3 -3
351 117 3 4.1699999999999998e-01 -8.1595902421410500e+00 -1.0032634338703961e+01 -1.2219416217245005e+00 -6 11 1
919 307 3 4.1699999999999998e-01 -1.0118780336814737e+01 -6.6856955988539237e+00 -1.7060423845255812e-01 -3 -3 -3
959 320 4 -8.3399999999999996e-01 -8.0812776618242612e+00 -7.7629416611483295e+00 -4.1623386281643882e-01 1 0 -4
88 30 3 4.1699999999999998e-01 -8.8926844701158689e+00 -9.3941509709713156e+00 -5.1489808697697956e+00 -1 -2 3
5 2 4 -8.3399999999999996e-01 -5.7035992001838958e+00 -1.1020754717946891e+01 -2.5114013475407564e+00 -2 -2 -2
1026 342 3 4.1699999999999998e-01 -2.6336866189294845e+00 -6.9846058365509407e+00 -1.9069644882233483e-01 3 6 -3
99 33 3 4.1699999999999998e-01 -4.9592780261349629e+00 -6.8337082322853542e+00 -1.4348579499395946e+00 2 -3 0
1025 342 4 -8.3399999999999996e-01 -3.3277781847459060e+00 -7.2061743095777846e+00 -8.1148414904331645e-01 3 6 -3
444 148 3 4.1699999999999998e-01 -2.8793671060623360e-01 -9.7186889839411101e+00 -2.2730715408986821e+00 1 -9 2
801 267 3 4.1699999999999998e-01 -2.4001250300128447e+00 -8.2269611336056414e+00 -4.4298837371507158e+00 0 -2 4
800 267 4 -8.3399999999999996e-01 -2.2502958094620951e+00 -7.5542770110375326e+00 -3.7655943881346428e+00 0 -2 4
799 267 3 4.1699999999999998e-01 -1.3643066415291152e+00 -7.7254408285409877e+00 -3.4462924182248171e+00 0 -2 4
1024 342 3 4.1699999999999998e-01 -2.8886519247822946e+00 -7.7203600552612635e+00 -1.4889851053234135e+00 3 6 -3
442 148 3 4.1699999999999998e-01 -1.3531283556201501e+00 -1.0472737385296996e+01 -3.0403340383247510e+00 1 -9 2
25 9 3 4.1699999999999998e-01 -3.1335273557917613e+00 -1.0582184605553163e+01 -4.7955739473553898e+00 0 4 3
443 148 4 -8.3399999999999996e-01 -6.3895220213610138e-01 -1.0597750143263257e+01 -2.4153944174888604e+00 1 -9 2
26 9 4 -8.3399999999999996e-01 -2.2628305161875506e+00 -1.0186818824874724e+01 -4.7531476336485259e+00 0 4 3
882 294 3 4.1699999999999998e-01 -2.9843941446122972e+00 -5.9947445117297029e+00 -4.0870239776979789e+00 -5 -6 -6
447 149 3 4.1699999999999998e-01 -6.6177443817869870e+00 -1.2744530570014412e-01 -2.3524494506480309e+00 2 -7 -5
445 149 3 4.1699999999999998e-01 -7.7855135203877630e+00 -1.0454005433706364e+00 -2.6449681839506400e+00 2 -7 -5
151 51 3 4.1699999999999998e-01 -5.5230829478160111e+00 -3.0879644943820601e+00 -3.6023163430723439e+00 2 -2 -1
152 51 4 -8.3399999999999996e-01 -6.1422909064213309e+00 -2.7940619632022177e+00 -4.2704704898489201e+00 2 -2 -1
213 71 3 4.1699999999999998e-01 -9.3955685819195018e+00 -4.2814898638793348e+00 -4.9680639504513451e+00 -5 -1 2
1040 347 4 -8.3399999999999996e-01 -8.7078050514532741e+00 -2.7918488629558293e+00 -2.7226915527949416e+00 3 -2 -2
1039 347 3 4.1699999999999998e-01 -9.6404914839281393e+00 -2.8258800018238635e+00 -2.9352120784169369e+00 3 -2 -2
1041 347 3 4.1699999999999998e-01 -8.6513476820273976e+00 -3.1417330737757752e+00 -1.8335200770633620e+00 3 -2 -2
153 51 3 4.1699999999999998e-01 -6.9567998519065215e+00 -2.6402410762173041e+00 -3.7917757869647533e+00 2 -2 -1
1016 339 4 -8.3399999999999996e-01 -6.8351329640166778e+00 -5.4251726073335957e+00 -4.7244938793871158e+00 4 2 -2
628 210 3 4.1699999999999998e-01 -5.1549430173951922e+00 -1.1115150631676217e+01 -4.1139065797095755e+00 -1 3 3
770 257 4 -8.3399999999999996e-01 -1.0624732729724968e+01 -3.5676981859593049e-01 -4.3834227085408086e+00 -3 -1 3
648 216 3 4.1699999999999998e-01 -6.7278261045132526e+00 -4.4768231360823130e-01 -4.9793037141181298e+00 2 -7 -8
771 257 3 4.1699999999999998e-01 -1.0512779469441705e+01 -6.7814729012420649e-01 -5.2780831612292216e+00 -3 -1 3
1017 339 3 4.1699999999999998e-01 -6.6174044838351511e+00 -4.5020594617735021e+00 -4.5953066160757370e+00 4 2 -2
446 149 4 -8.3399999999999996e-01 -7.2480997963846088e+00 -3.5626045579889443e-01 -3.0354795316415650e+00 2 -7 -5
141 47 3 4.1699999999999998e-01 -5.0048109825678040e+00 -1.3176826475032772e+00 -2.0393124477617341e+00 3 3 1
197 66 4 -8.3399999999999996e-01 -9.6005532594359622e-02 -4.6725343212923587e+00 -2.5322786263103403e+00 3 -4 -1
140 47 4 -8.3399999999999996e-01 -4.8265248516996522e+00 -4.5715575717646217e-01 -1.6599166322116385e+00 3 3 1
767 256 4 -8.3399999999999996e-01 -6.2103150762444770e-01 -1.9096895028935936e+00 -4.4447485481858875e+00 3 -1 -1
196 66 3 4.1699999999999998e-01 -5.9779662467928674e-01 -4.5056027090989081e+00 -3.3301298892105642e+00 3 -4 -1
45 15 3 4.1699999999999998e-01 -1.2674530236806092e+00 -3.9979851122119054e+00 -1.0619173167757481e+00 -4 -2 0
433 145 3 4.1699999999999998e-01 -3.7932833793331735e+00 -3.6812777756260351e+00 -1.8647146237755479e+00 4 -6 -2
81 27 3 4.1699999999999998e-01 -1.2544557610505436e+00 -1.0418411138712003e+00 -5.9114323246921785e-01 -4 -1 -1
79 27 3 4.1699999999999998e-01 -2.6593195142688781e+00 -1.6033005806853424e+00 -6.4605453147626335e-01 -4 -1 -1
80 27 4 -8.3399999999999996e-01 -2.1750435452861048e+00 -7.7965068348869337e-01 -5.8856138854104145e-01 -4 -1 -1
766 256 3 4.1699999999999998e-01 -1.1389247608844588e+00 -2.4604994165376493e+00 -5.0317940740390750e+00 3 -1 -1
880 294 3 4.1699999999999998e-01 -4.2480413069366323e+00 -5.1924677150979113e+00 -4.3138313913585673e+00 -5 -6 -6
434 145 4 -8.3399999999999996e-01 -4.6623921026244179e+00 -3.2899926770772128e+00 -1.7765534955211653e+00 4 -6 -2
768 256 3 4.1699999999999998e-01 -1.2596974078296661e+00 -1.5452494618022126e+00 -3.8319485238464681e+00 3 -1 -1
435 145 3 4.1699999999999998e-01 -4.9476214788741624e+00 -3.5347954185668913e+00 -8.9624148780563218e-01 4 -6 -2
881 294 4 -8.3399999999999996e-01 -3.2936546836073246e+00 -5.1267995297170295e+00 -4.3463743974864091e+00 -5 -6 -6
139 47 3 4.1699999999999998e-01 -4.6154635797997781e+00 -6.3778603254893618e-01 -7.4391871469030235e-01 3 3 1
43 15 3 4.1699999999999998e-01 -2.3623598225995028e+00 -4.2122298383499128e+00 -3.8614521462811524e-02 -4 -2 0
44 15 4 -8.3399999999999996e-01 -2.1717874015322938e+00 -3.7583079968406681e+00 -8.5951236017660904e-01 -4 -2 0
922 308 3 4.1699999999999998e-01 -9.9073070989479124e+00 -4.1492604463852256e+00 -2.5810600008105844e-01 8 6 5
802 268 3 4.1699999999999998e-01 -7.9463382079497134e+00 -1.0290631367199399e+01 3.9355102905890256e+00 -1 0 -2
599 200 4 -8.3399999999999996e-01 -1.0376130069711269e+01 -1.0675232169279624e+01 3.3480499526482941e+00 6 0 1
1054 352 3 4.1699999999999998e-01 -9.5337677562727414e+00 -9.3135156572989040e+00 4.2710409322796341e+00 -3 2 3
803 268 4 -8.3399999999999996e-01 -7.4285319561693584e+00 -1.1086547060635917e+01 4.0564321863765631e+00 -1 0 -2
214 72 3 4.1699999999999998e-01 -5.7783255934793818e+00 -6.9190083660435819e+00 1.5316846277318401e+00 5 -4 -1
945 315 3 4.1699999999999998e-01 -6.4324181265390745e+00 -8.7205104862574245e+00 3.9383284942376662e-01 3 5 -4
215 72 4 -8.3399999999999996e-01 -5.7118967007554273e+00 -6.0464679794760521e+00 1.9196107660576249e+00 5 -4 -1
598 200 3 4.1699999999999998e-01 -1.0075034073453972e+01 -1.1104923709822986e+01 2.5474667062669294e+00 6 0 1
224 75 4 -8.3399999999999996e-01 -9.0793093078563558e+00 -5.8442629847051206e+00 2.2323454060083012e+00 0 1 -3
223 75 3 4.1699999999999998e-01 -9.4500623199880884e+00 -5.8373760103548156e+00 1.3498938160973584e+00 0 1 -3
225 75 3 4.1699999999999998e-01 -8.3230302738639903e+00 -6.4277300433261040e+00 2.1703670714890091e+00 0 1 -3
1056 352 3 4.1699999999999998e-01 -9.5637120936720006e+00 -8.1278048662587175e+00 5.2118300291891124e+00 -3 2 3
1055 352 4 -8.3399999999999996e-01 -8.9636423854532428e+00 -8.7290939994576426e+00 4.7706759579871481e+00 -3 2 3
944 315 4 -8.3399999999999996e-01 -5.6608510715758467e+00 -8.4050850972105220e+00 8.6438988688938778e-01 3 5 -4
793 265 3 4.1699999999999998e-01 -2.1451860480964591e-01 -1.0921614605620228e+01 5.3671123585859526e+00 1 6 3
886 296 3 4.1699999999999998e-01 -1.2774495639608485e+00 -7.8997048442653357e+00 3.1650845592093333e+00 -3 4 -5
291 97 3 4.1699999999999998e-01 -3.0599799096258486e+00 -7.6662597230628364e+00 3.7238003441171923e+00 -2 4 4
290 97 4 -8.3399999999999996e-01 -3.3296338166462043e+00 -6.7494165532405095e+00 3.6697670042830346e+00 -2 4 4
122 41 4 -8.3399999999999996e-01 -2.3734390864356651e+00 -9.2016117664055912e+00 4.2688340368822288e+00 -3 -4 -1
123 41 3 4.1699999999999998e-01 -2.7969028421636573e+00 -9.5704633348903929e+00 3.4936813648705858e+00 -3 -4 -1
1046 349 4 -8.3399999999999996e-01 -3.6797296322032347e+00 -1.0028570057193592e+01 1.9989837699175812e+00 1 -2 -9
121 41 3 4.1699999999999998e-01 -2.4037474498332827e+00 -9.9055695929116556e+00 4.9167159967546290e+00 -3 -4 -1
1047 349 3 4.1699999999999998e-01 -4.3099485646655440e+00 -9.3480188187669011e+00 1.7625368361948297e+00 1 -2 -9
887 296 4 -8.3399999999999996e-01 -6.4618038299505542e-01 -7.8577312812750382e+00 2.4467785046870638e+00 -3 4 -5
216 72 3 4.1699999999999998e-01 -5.1251004771081243e+00 -6.1602605928761749e+00 2.6672441142707388e+00 5 -4 -1
888 296 3 4.1699999999999998e-01 -1.0085829794689971e-01 -8.6361081094425511e+00 2.5607373675812060e+00 -3 4 -5
289 97 3 4.1699999999999998e-01 -3.5144091838815719e+00 -6.4998480222107791e+00 4.5751950932334715e+00 -2 4 4
943 315 3 4.1699999999999998e-01 -4.9306600623299097e+00 -8.5752094023869887e+00 2.6932094055441524e-01 3 5 -4
1032 344 3 4.1699999999999998e-01 -1.7155873773188013e-01 -6.5775124487387764e+00 1.2475726787618573e+00 -3 1 1
1045 349 3 4.1699999999999998e-01 -4.1938945020084741e+00 -1.0835731850369658e+01 2.0177504953196870e+00 1 -2 -9
554 185 4 -8.3399999999999996e-01 -1.8979507062700129e-01 -3.1718180395517628e+00 1.9115586392982742e+00 -1 -4 -8
312 104 3 4.1699999999999998e-01 -7.0611499869395358e+00 -3.4771127096205561e+00 4.7431879378473063e-01 2 3 -4
651 217 3 4.1699999999999998e-01 -1.0536292157408063e+01 -2.0738433232473525e+00 1.9992360300489249e+00 -6 -2 0
311 104 4 -8.3399999999999996e-01 -6.1245116496155907e+00 -3.6381426767431675e+00 5.8824277446502293e-01 2 3 -4
310 104 3 4.1699999999999998e-01 -6.0756036557902684e+00 -4.5213109635653428e+00 9.5415485501180797e-01 2 3 -4
114 38 3 4.1699999999999998e-01 -5.8967429915854828e+00 -8.3730117914549140e-01 2.5607800612946203e+00 6 5 -2
91 31 3 4.1699999999999998e-01 -8.6446772557471849e+00 -3.2431147147006962e+00 3.8898996548549096e+00 -3 -3 -7
924 308 3 4.1699999999999998e-01 -9.4144044350882226e+00 -3.3804189272316911e+00 9.4932979396338446e-01 8 6 5
92 31 4 -8.3399999999999996e-01 -8.8575173737471413e+00 -3.3232846165212884e+00 2.9601152093731837e+00 -3 -3 -7
181 61 3 4.1699999999999998e-01 -6.2044819344967275e+00 -3.1231919732472946e-01 5.0907159904848136e+00 -3 0 1
93 31 3 4.1699999999999998e-01 -8.6883657370006624e+00 -4.2425058592973759e+00 2.7535876993501596e+00 -3 -3 -7
508 170 3 4.1699999999999998e-01 -9.4291255227998665e+00 -4.9918779138504021e-01 3.3546052967776117e+00 4 0 -4
741 247 3 4.1699999999999998e-01 -1.0704891229179713e+01 -5.2308078192170644e+00 2.8360121335715025e+00 4 3 6
113 38 4 -8.3399999999999996e-01 -6.4463130627040561e+00 -2.8345395517056637e-01 3.1152587659477167e+00 6 5 -2
201 67 3 4.1699999999999998e-01 -3.2951295967073513e-01 -1.1043398518818055e+01 1.6335502531176171e+00 1 -1 -5
510 170 3 4.1699999999999998e-01 -8.1169524696290338e+00 -2.0096014396042250e-02 3.9381890389017844e+00 4 0 -4
104 35 4 -8.3399999999999996e-01 -7.9953001145801572e+00 -2.8394481558142921e+00 5.5700689262714143e+00 -3 5 -2
1029 343 3 4.1699999999999998e-01 -4.3966450920232596e+00 -4.2387181582342759e+00 4.3053793222364174e+00 -1 -3 0
1027 343 3 4.1699999999999998e-01 -3.6560711413084412e+00 -2.9427432484015146e+00 4.5580177819056935e+00 -1 -3 0
1064 355 4 -8.3399999999999996e-01 -4.5622071415210286e+00 -1.8972760886943032e+00 1.8293139215445500e+00 3 1 0
1063 355 3 4.1699999999999998e-01 -4.3265356409220539e+00 -2.4966469914918026e+00 2.5374072426222298e+00 3 1 0
581 194 4 -8.3399999999999996e-01 -1.7726252713106998e+00 -1.1520111093276011e+00 2.9415845570137584e+00 1 -1 -3
664 222 3 4.1699999999999998e-01 -3.5593725428070311e+00 -4.7594811357233038e+00 1.6015295658192343e+00 -1 -2 1
665 222 4 -8.3399999999999996e-01 -2.6911779510085285e+00 -5.0944079184744435e+00 1.3772786232045195e+00 -1 -2 1
1065 355 3 4.1699999999999998e-01 -5.1082868539730315e+00 -2.4211850153615782e+00 1.2431831713621584e+00 3 1 0
1028 343 4 -8.3399999999999996e-01 -3.9537891308820665e+00 -3.5197030784547216e+00 3.8546804542239457e+00 -1 -3 0
553 185 3 4.1699999999999998e-01 -9.0640695539773475e-01 -3.8043186914531395e+00 1.9629211109079865e+00 -1 -4 -8
582 194 3 4.1699999999999998e-01 -2.0049543273672654e+00 -4.5236178186308784e-01 3.5521243432892469e+00 1 -1 -3
693 231 3 4.1699999999999998e-01 -3.1755156383144723e-01 -1.3649005871460140e-01 2.5031445230046572e+00 7 1 4
666 222 3 4.1699999999999998e-01 -2.5324446587502898e+00 -5.7934977685444249e+00 2.0115582269355698e+00 -1 -2 1
580 194 3 4.1699999999999998e-01 -2.6132993646190013e+00 -1.4975849008627709e+00 2.6414640969137206e+00 1 -1 -3
555 185 3 4.1699999999999998e-01 -5.4713750032201602e-01 -2.3723765724674468e+00 2.2981240686380797e+00 -1 -4 -8
95 32 4 -8.3399999999999996e-01 -1.1007452185119016e+01 -7.1826441047700831e+00 5.1231731953214599e+00 -3 -1 0
923 308 4 -8.3399999999999996e-01 -9.2562910310674269e+00 -3.5020217083572787e+00 1.3142794585743189e-02 8 6 5
173 58 4 -8.3399999999999996e-01 -7.9481939835595394e+00 -1.0234305231699174e+01 7.1201468780311217e+00 2 -1 -2
172 58 3 4.1699999999999998e-01 -8.6658604587395658e+00 -9.7119925915907874e+00 6.7618583033574069e+00 2 -1 -2
751 251 3 4.1699999999999998e-01 -8.0977319936890986e+00 -9.9371045219591885e+00 9.0106197875021401e+00 1 4 0
874 292 3 4.1699999999999998e-01 -7.9920728906480250e+00 -5.5646453327236971e+00 7.7608703214921881e+00 -1 1 4
319 107 3 4.1699999999999998e-01 -6.3787383189178772e+00 -9.9356311944847846e+00 7.4832619087469752e+00 5 2 -1
321 107 3 4.1699999999999998e-01 -5.6176758520135515e+00 -8.6326471432613445e+00 7.3611501460603250e+00 5 2 -1
752 251 4 -8.3399999999999996e-01 -8.1618479130886499e+00 -9.7950987118003319e+00 9.9550805706673202e+00 1 4 0
753 251 3 4.1699999999999998e-01 -8.4556104592927284e+00 -8.8882455050436935e+00 1.0041998934945880e+01 1 4 0
174 58 3 4.1699999999999998e-01 -7.7407796855461424e+00 -1.0863221671241501e+01 6.4290057235768181e+00 2 -1 -2
763 255 3 4.1699999999999998e-01 -9.2777234448904622e+00 -6.4344323453648249e+00 9.5721027149258333e+00 2 4 2
765 255 3 4.1699999999999998e-01 -9.6753956323949790e+00 -7.0765249611070775e+00 1.0884176004992284e+01 2 4 2
729 243 3 4.1699999999999998e-01 -6.2175652377070474e+00 -1.0367000711419106e+01 1.1126562449293246e+01 2 0 7
764 255 4 -8.3399999999999996e-01 -9.4408082590381550e+00 -7.2849513927312746e+00 9.9798390887183182e+00 2 4 2
320 107 4 -8.3399999999999996e-01 -5.5901129190150547e+00 -9.4880552225148875e+00 7.7898112031146844e+00 5 2 -1
668 223 4 -8.3399999999999996e-01 -4.5340384216854828e+00 -7.8574570960040271e+00 9.8567674589669032e+00 1 -3 -9
931 311 3 4.1699999999999998e-01 -2.8231983836548427e+00 -1.0795065712604613e+01 1.0653541110385063e+01 -5 3 -6
987 329 3 4.1699999999999998e-01 -4.8103668845529626e+00 -6.3061413206679173e+00 8.7341080179235000e+00 2 -5 0
481 161 3 4.1699999999999998e-01 -2.4001613605792542e+00 -9.7937079797409634e+00 7.8005838799573155e+00 0 0 5
300 100 3 4.1699999999999998e-01 -5.4570639020727540e-01 -9.3794516387891793e+00 6.7200532402348543e+00 -1 -3 -7
586 196 3 4.1699999999999998e-01 -8.3452667281004622e-01 -6.1028711900478578e+00 8.3302065690325833e+00 5 -6 1
587 196 4 -8.3399999999999996e-01 -1.2756037429651439e+00 -6.6902581862424455e+00 8.9439284958433483e+00 5 -6 1
588 196 3 4.1699999999999998e-01 -1.1846283308060226e+00 -7.5589010848401319e+00 8.5522447975261358e+00 5 -6 1
299 100 4 -8.3399999999999996e-01 -1.2628455240420120e+00 -8.7983042980802644e+00 6.9734561309574232e+00 -1 -3 -7
175 59 3 4.1699999999999998e-01 -5.8564762048474961e-01 -6.0933908690905225e+00 1.0357799406699510e+01 2 5 1
482 161 4 -8.3399999999999996e-01 -2.9775749159962768e+00 -1.0302788142276210e+01 8.3694817044959819e+00 0 0 5
669 223 3 4.1699999999999998e-01 -4.9169710754927829e+00 -8.5879393917117799e+00 9.3709545383830601e+00 1 -3 -9
483 161 3 4.1699999999999998e-01 -3.8571518655838082e+00 -9.9860800475622238e+00 8.1638763879505554e+00 0 0 5
667 223 3 4.1699999999999998e-01 -4.6864357414284035e+00 -8.0747182467111767e+00 1.0776427510574557e+01 1 -3 -9
298 100 3 4.1699999999999998e-01 -1.6006079978020384e+00 -8.4584964016129138e+00 6.1447983731952789e+00 -1 -3 -7
933 311 3 4.1699999999999998e-01 -1.5667783591981692e+00 -1.0043768772692502e+01 1.1039358620987407e+01 -5 3 -6
728 243 4 -8.3399999999999996e-01 -5.3201580468792162e+00 -1.0676582266781297e+01 1.1003961880954158e+01 2 0 7
176 59 4 -8.3399999999999996e-01 -1.6023592552340737e-01 -5.8018691288272688e+00 1.1164210458137170e+01 2 5 1
677 226 4 -8.3399999999999996e-01 -1.1065978301081385e+01 -2.9143964442605785e+00 1.0401253263769373e+01 -3 1 -5
430 144 3 4.1699999999999998e-01 -8.4076165147959436e+00 -3.3139954285755335e+00 8.8038051267747441e+00 5 1 -6
876 292 3 4.1699999999999998e-01 -7.0076993883643972e+00 -5.2525570918104352e+00 8.8678954833220516e+00 -1 1 4
875 292 4 -8.3399999999999996e-01 -7.9442392876845398e+00 -5.3385172567786334e+00 8.6897430725663689e+00 -1 1 4
94 32 3 4.1699999999999998e-01 -1.0927149444813582e+01 -6.4144355756172358e+00 5.6885093362071650e+00 -3 -1 0
432 144 3 4.1699999999999998e-01 -9.5056676370883224e+00 -2.6197320179859958e+00 9.5810924911895015e+00 5 1 -6
83 28 4 -8.3399999999999996e-01 -1.1059642351350282e+01 -3.8181949777588411e+00 5.7513038394446916e+00 -2 -4 4
431 144 4 -8.3399999999999996e-01 -8.6858737294552952e+00 -2.4529691152453381e+00 9.1159469670147750e+00 5 1 -6
355 119 3 4.1699999999999998e-01 -6.8999414500304903e+00 -1.4206199103105810e+00 9.7735213647089338e+00 -1 4 -6
103 35 3 4.1699999999999998e-01 -8.7120544626578287e+00 -2.5667114400433633e+00 6.1429497953990442e+00 -3 5 -2
356 119 4 -8.3399999999999996e-01 -6.3003933299165169e+00 -6.8497565568183738e-01 9.6486378864166795e+00 -1 4 -6
357 119 3 4.1699999999999998e-01 -5.7935960463051837e+00 -6.4803907744672351e-01 1.0459825470085232e+01 -1 4 -6
183 61 3 4.1699999999999998e-01 -5.4172590393987807e+00 -6.6819757136189395e-01 6.3338960785212812e+00 -3 0 1
182 61 4 -8.3399999999999996e-01 -6.1172984604949816e+00 -9.8690365759279253e-01 5.7641550397147654e+00 -3 0 1
608 203 4 -8.3399999999999996e-01 -5.6494636049809239e+00 -5.1355837103030808e+00 5.7904625220798209e+00 -5 2 -1
607 203 3 4.1699999999999998e-01 -6.2975458307484962e+00 -4.4312629152943783e+00 5.7783184967413739e+00 -5 2 -1
532 178 3 4.1699999999999998e-01 -1.4829652444833048e+00 -6.3005451444923466e-01 1.0752871758311990e+01 4 5 -7
440 147 4 -8.3399999999999996e-01 -3.6224448598333439e+00 -2.5249877082298795e+00 6.6249775669718503e+00 -5 -4 3
986 329 4 -8.3399999999999996e-01 -5.0601507498374652e+00 -5.4805087646373210e+00 8.3191720172575963e+00 2 -5 0
534 178 3 4.1699999999999998e-01 -1.7010307823530564e+00 -3.9766910180763304e-01 9.2728920354053237e+00 4 5 -7
985 329 3 4.1699999999999998e-01 -4.3216509737470181e+00 -4.8948998316795977e+00 8.4862244950931576e+00 2 -5 0
928 310 3 4.1699999999999998e-01 -2.3084473096796589e+00 -2.6800664585038287e+00 9.6952922620620328e+00 -1 -4 -2
935 312 4 -8.3399999999999996e-01 -3.2540321255055460e-02 -2.9467349721632523e+00 1.0045908744218348e+01 -4 0 -1
929 310 4 -8.3399999999999996e-01 -3.0655170103877847e+00 -3.2467695521314077e+00 9.5472360585947840e+00 -1 -4 -2
786 262 3 4.1699999999999998e-01 -2.3284063746396395e+00 -8.4091772832830358e-01 7.1523512222968222e+00 5 -1 0
441 147 3 4.1699999999999998e-01 -3.5654743411076337e+00 -2.2401228907169752e+00 7.5370303912222418e+00 -5 -4 3
930 310 3 4.1699999999999998e-01 -3.3995468068246737e+00 -3.4350265025022129e+00 1.0424285437610866e+01 -1 -4 -2
742 248 3 4.1699999999999998e-01 -5.1257272283227637e+00 -6.0588056030008275e-02 8.0115053666768681e+00 -1 -1 3
609 203 3 4.1699999999999998e-01 -5.6530009159170582e+00 -5.4494013518983921e+00 6.6947520394665183e+00 -5 2 -1
439 147 3 4.1699999999999998e-01 -4.4301540169180775e+00 -3.0369548319396404e+00 6.5834669809045003e+00 -5 -4 3
533 178 4 -8.3399999999999996e-01 -2.1321855542605181e+00 -3.1586587540786049e-01 1.0123565936398137e+01 4 5 -7
784 262 3 4.1699999999999998e-01 -9.0704628613326399e-01 -1.3540042016627414e+00 7.2438883412565325e+00 5 -1 0
785 262 4 -8.3399999999999996e-01 -1.5073064403675271e+00 -7.1491403991851676e-01 7.6279050888170268e+00 5 -1 0
934 312 3 4.1699999999999998e-01 -1.8064373481043461e-01 -3.7253867159854641e+00 1.0582559568389389e+01 -4 0 -1
84 28 3 4.1699999999999998e-01 -1.1161091759521311e+01 -2.9547541629716143e+00 6.1518170431534891e+00 -2 -4 4
932 311 4 -8.3399999999999996e-01 -2.0321045141693244e+00 -1.0867010982127596e+01 1.1187602594775356e+01 -5 3 -6
105 35 3 4.1699999999999998e-01 -7.3504302162043853e+00 -2.1356774245466479e+00 5.6408698537839079e+00 -3 5 -2
293 98 4 -8.3399999999999996e-01 -7.1213858688750200e+00 2.5805057327838927e+00 -6.6991930350503628e+00 0 4 3
294 98 3 4.1699999999999998e-01 -7.5701582073317022e+00 3.4189548681435777e+00 -6.5903361269325638e+00 0 4 3
12 4 3 4.1699999999999998e-01 -7.0062923140798627e+00 1.7148688194405146e+00 -1.1048042020947777e+01 -2 2 -2
437 146 4 -8.3399999999999996e-01 -1.0452072122844328e+01 2.4386085867063088e+00 -6.6516624460304001e+00 -4 -7 1
610 204 3 4.1699999999999998e-01 -6.7640227643186792e+00 8.8699202560225565e-01 -8.9477377748565026e+00 3 -5 0
612 204 3 4.1699999999999998e-01 -7.2211252545685491e+00 2.2882963093498176e+00 -8.6023444988933662e+00 3 -5 0
438 146 3 4.1699999999999998e-01 -1.0832944563306034e+01 2.9416152399112860e+00 -5.9318400004632430e+00 -4 -7 1
611 204 4 -8.3399999999999996e-01 -7.0978727304546938e+00 1.6929585038458352e+00 -9.3416786569043104e+00 3 -5 0